MODEL 1
REMARK VINA RESULT:      -5.4      0.000      0.000
REMARK  Name = 
REMARK  3 active torsions:
REMARK  status: ('A' for Active; 'I' for Inactive)
REMARK    1  A    between atoms: C_1  and  N_2
REMARK    2  A    between atoms: N_9  and  C_10
REMARK    3  A    between atoms: N_13  and  C_14
REMARK                            x       y       z     vdW  Elec       q    Type
REMARK                         _______ _______ _______ _____ _____    ______ ____
ROOT
ATOM      1  C   UNL     1      17.229  17.224   1.787  0.00  0.00    +0.150 C 
ATOM      2  N   UNL     1      17.472  17.793   3.089  0.00  0.00    -0.328 N 
ATOM      3  C   UNL     1      16.807  18.833   3.670  0.00  0.00    +0.151 A 
ATOM      4  C   UNL     1      15.722  19.635   3.224  0.00  0.00    +0.282 A 
ATOM      5  N   UNL     1      15.360  20.624   4.146  0.00  0.00    -0.262 N 
ATOM      6  C   UNL     1      15.961  20.836   5.403  0.00  0.00    +0.333 A 
ATOM      7  N   UNL     1      17.012  19.986   5.756  0.00  0.00    -0.280 N 
ATOM      8  C   UNL     1      17.687  20.136   7.031  0.00  0.00    +0.155 C 
ATOM      9  O   UNL     1      15.574  21.732   6.157  0.00  0.00    -0.246 OA
ATOM     10  C   UNL     1      14.267  21.489   3.749  0.00  0.00    +0.157 C 
ATOM     11  O   UNL     1      15.166  19.469   2.142  0.00  0.00    -0.265 OA
ATOM     12  C   UNL     1      17.411  19.007   4.878  0.00  0.00    +0.168 A 
ATOM     13  N   UNL     1      18.419  18.110   5.077  0.00  0.00    -0.218 NA
ATOM     14  C   UNL     1      18.433  17.384   3.977  0.00  0.00    +0.202 A 
ENDROOT
TORSDOF 0
ENDMDL
MODEL 2
REMARK VINA RESULT:      -5.4      1.688      3.114
REMARK  Name = 
REMARK  3 active torsions:
REMARK  status: ('A' for Active; 'I' for Inactive)
REMARK    1  A    between atoms: C_1  and  N_2
REMARK    2  A    between atoms: N_9  and  C_10
REMARK    3  A    between atoms: N_13  and  C_14
REMARK                            x       y       z     vdW  Elec       q    Type
REMARK                         _______ _______ _______ _____ _____    ______ ____
ROOT
ATOM      1  C   UNL     1      17.306  17.683   1.907  0.00  0.00    +0.150 C 
ATOM      2  N   UNL     1      16.501  18.662   2.593  0.00  0.00    -0.328 N 
ATOM      3  C   UNL     1      16.710  19.170   3.842  0.00  0.00    +0.151 A 
ATOM      4  C   UNL     1      17.725  18.931   4.807  0.00  0.00    +0.282 A 
ATOM      5  N   UNL     1      17.540  19.664   5.986  0.00  0.00    -0.262 N 
ATOM      6  C   UNL     1      16.488  20.567   6.235  0.00  0.00    +0.333 A 
ATOM      7  N   UNL     1      15.547  20.744   5.218  0.00  0.00    -0.280 N 
ATOM      8  C   UNL     1      14.430  21.654   5.394  0.00  0.00    +0.155 C 
ATOM      9  O   UNL     1      16.404  21.176   7.305  0.00  0.00    -0.246 OA
ATOM     10  C   UNL     1      18.533  19.458   7.022  0.00  0.00    +0.157 C 
ATOM     11  O   UNL     1      18.663  18.162   4.618  0.00  0.00    -0.265 OA
ATOM     12  C   UNL     1      15.680  20.037   4.047  0.00  0.00    +0.168 A 
ATOM     13  N   UNL     1      14.844  20.097   2.972  0.00  0.00    -0.218 NA
ATOM     14  C   UNL     1      15.366  19.255   2.103  0.00  0.00    +0.202 A 
ENDROOT
TORSDOF 0
ENDMDL
MODEL 3
REMARK VINA RESULT:      -5.4      6.803      9.542
REMARK  Name = 
REMARK  3 active torsions:
REMARK  status: ('A' for Active; 'I' for Inactive)
REMARK    1  A    between atoms: C_1  and  N_2
REMARK    2  A    between atoms: N_9  and  C_10
REMARK    3  A    between atoms: N_13  and  C_14
REMARK                            x       y       z     vdW  Elec       q    Type
REMARK                         _______ _______ _______ _____ _____    ______ ____
ROOT
ATOM      1  C   UNL     1       9.769  27.675   8.704  0.00  0.00    +0.150 C 
ATOM      2  N   UNL     1       9.989  27.005   7.447  0.00  0.00    -0.328 N 
ATOM      3  C   UNL     1      10.958  26.088   7.163  0.00  0.00    +0.151 A 
ATOM      4  C   UNL     1      11.990  25.519   7.957  0.00  0.00    +0.282 A 
ATOM      5  N   UNL     1      12.790  24.616   7.246  0.00  0.00    -0.262 N 
ATOM      6  C   UNL     1      12.624  24.259   5.893  0.00  0.00    +0.333 A 
ATOM      7  N   UNL     1      11.571  24.864   5.201  0.00  0.00    -0.280 N 
ATOM      8  C   UNL     1      11.331  24.554   3.804  0.00  0.00    +0.155 C 
ATOM      9  O   UNL     1      13.375  23.448   5.345  0.00  0.00    -0.246 OA
ATOM     10  C   UNL     1      13.874  24.007   7.992  0.00  0.00    +0.157 C 
ATOM     11  O   UNL     1      12.155  25.796   9.141  0.00  0.00    -0.265 OA
ATOM     12  C   UNL     1      10.766  25.767   5.854  0.00  0.00    +0.168 A 
ATOM     13  N   UNL     1       9.710  26.439   5.315  0.00  0.00    -0.218 NA
ATOM     14  C   UNL     1       9.255  27.182   6.303  0.00  0.00    +0.202 A 
ENDROOT
TORSDOF 0
ENDMDL
MODEL 4
REMARK VINA RESULT:      -5.3      7.690      9.806
REMARK  Name = 
REMARK  3 active torsions:
REMARK  status: ('A' for Active; 'I' for Inactive)
REMARK    1  A    between atoms: C_1  and  N_2
REMARK    2  A    between atoms: N_9  and  C_10
REMARK    3  A    between atoms: N_13  and  C_14
REMARK                            x       y       z     vdW  Elec       q    Type
REMARK                         _______ _______ _______ _____ _____    ______ ____
ROOT
ATOM      1  C   UNL     1      13.126  24.255   6.485  0.00  0.00    +0.150 C 
ATOM      2  N   UNL     1      12.302  25.155   7.252  0.00  0.00    -0.328 N 
ATOM      3  C   UNL     1      11.189  25.818   6.824  0.00  0.00    +0.151 A 
ATOM      4  C   UNL     1      10.512  25.831   5.575  0.00  0.00    +0.282 A 
ATOM      5  N   UNL     1       9.403  26.685   5.564  0.00  0.00    -0.262 N 
ATOM      6  C   UNL     1       8.951  27.459   6.652  0.00  0.00    +0.333 A 
ATOM      7  N   UNL     1       9.677  27.368   7.842  0.00  0.00    -0.280 N 
ATOM      8  C   UNL     1       9.282  28.134   9.009  0.00  0.00    +0.155 C 
ATOM      9  O   UNL     1       7.958  28.185   6.556  0.00  0.00    -0.246 OA
ATOM     10  C   UNL     1       8.672  26.758   4.314  0.00  0.00    +0.157 C 
ATOM     11  O   UNL     1      10.870  25.159   4.612  0.00  0.00    -0.265 OA
ATOM     12  C   UNL     1      10.782  26.551   7.897  0.00  0.00    +0.168 A 
ATOM     13  N   UNL     1      11.590  26.363   8.978  0.00  0.00    -0.218 NA
ATOM     14  C   UNL     1      12.503  25.510   8.561  0.00  0.00    +0.202 A 
ENDROOT
TORSDOF 0
ENDMDL
MODEL 5
REMARK VINA RESULT:      -5.3      1.584      3.660
REMARK  Name = 
REMARK  3 active torsions:
REMARK  status: ('A' for Active; 'I' for Inactive)
REMARK    1  A    between atoms: C_1  and  N_2
REMARK    2  A    between atoms: N_9  and  C_10
REMARK    3  A    between atoms: N_13  and  C_14
REMARK                            x       y       z     vdW  Elec       q    Type
REMARK                         _______ _______ _______ _____ _____    ______ ____
ROOT
ATOM      1  C   UNL     1      13.794  21.691   3.490  0.00  0.00    +0.150 C 
ATOM      2  N   UNL     1      14.873  21.233   4.329  0.00  0.00    -0.328 N 
ATOM      3  C   UNL     1      15.775  20.249   4.045  0.00  0.00    +0.151 A 
ATOM      4  C   UNL     1      15.949  19.420   2.904  0.00  0.00    +0.282 A 
ATOM      5  N   UNL     1      17.007  18.514   3.044  0.00  0.00    -0.262 N 
ATOM      6  C   UNL     1      17.852  18.405   4.167  0.00  0.00    +0.333 A 
ATOM      7  N   UNL     1      17.608  19.274   5.233  0.00  0.00    -0.280 N 
ATOM      8  C   UNL     1      18.430  19.227   6.428  0.00  0.00    +0.155 C 
ATOM      9  O   UNL     1      18.767  17.577   4.205  0.00  0.00    -0.246 OA
ATOM     10  C   UNL     1      17.233  17.626   1.921  0.00  0.00    +0.157 C 
ATOM     11  O   UNL     1      15.241  19.498   1.904  0.00  0.00    -0.265 OA
ATOM     12  C   UNL     1      16.572  20.174   5.146  0.00  0.00    +0.168 A 
ATOM     13  N   UNL     1      16.209  21.077   6.100  0.00  0.00    -0.218 NA
ATOM     14  C   UNL     1      15.177  21.708   5.578  0.00  0.00    +0.202 A 
ENDROOT
TORSDOF 0
ENDMDL
MODEL 6
REMARK VINA RESULT:      -5.3      8.035     10.270
REMARK  Name = 
REMARK  3 active torsions:
REMARK  status: ('A' for Active; 'I' for Inactive)
REMARK    1  A    between atoms: C_1  and  N_2
REMARK    2  A    between atoms: N_9  and  C_10
REMARK    3  A    between atoms: N_13  and  C_14
REMARK                            x       y       z     vdW  Elec       q    Type
REMARK                         _______ _______ _______ _____ _____    ______ ____
ROOT
ATOM      1  C   UNL     1       9.159  25.764   3.341  0.00  0.00    +0.150 C 
ATOM      2  N   UNL     1       9.069  26.443   4.609  0.00  0.00    -0.328 N 
ATOM      3  C   UNL     1       9.893  26.290   5.685  0.00  0.00    +0.151 A 
ATOM      4  C   UNL     1      11.041  25.479   5.894  0.00  0.00    +0.282 A 
ATOM      5  N   UNL     1      11.581  25.618   7.178  0.00  0.00    -0.262 N 
ATOM      6  C   UNL     1      11.089  26.468   8.189  0.00  0.00    +0.333 A 
ATOM      7  N   UNL     1       9.963  27.236   7.881  0.00  0.00    -0.280 N 
ATOM      8  C   UNL     1       9.390  28.135   8.865  0.00  0.00    +0.155 C 
ATOM      9  O   UNL     1      11.631  26.532   9.296  0.00  0.00    -0.246 OA
ATOM     10  C   UNL     1      12.748  24.807   7.466  0.00  0.00    +0.157 C 
ATOM     11  O   UNL     1      11.505  24.738   5.032  0.00  0.00    -0.265 OA
ATOM     12  C   UNL     1       9.391  27.124   6.636  0.00  0.00    +0.168 A 
ATOM     13  N   UNL     1       8.293  27.799   6.193  0.00  0.00    -0.218 NA
ATOM     14  C   UNL     1       8.120  27.369   4.959  0.00  0.00    +0.202 A 
ENDROOT
TORSDOF 0
ENDMDL
MODEL 7
REMARK VINA RESULT:      -5.2      6.155      8.687
REMARK  Name = 
REMARK  3 active torsions:
REMARK  status: ('A' for Active; 'I' for Inactive)
REMARK    1  A    between atoms: C_1  and  N_2
REMARK    2  A    between atoms: N_9  and  C_10
REMARK    3  A    between atoms: N_13  and  C_14
REMARK                            x       y       z     vdW  Elec       q    Type
REMARK                         _______ _______ _______ _____ _____    ______ ____
ROOT
ATOM      1  C   UNL     1       9.797  27.419   8.235  0.00  0.00    +0.150 C 
ATOM      2  N   UNL     1      10.914  26.521   8.085  0.00  0.00    -0.328 N 
ATOM      3  C   UNL     1      11.258  25.816   6.969  0.00  0.00    +0.151 A 
ATOM      4  C   UNL     1      10.681  25.749   5.672  0.00  0.00    +0.282 A 
ATOM      5  N   UNL     1      11.354  24.866   4.820  0.00  0.00    -0.262 N 
ATOM      6  C   UNL     1      12.497  24.112   5.154  0.00  0.00    +0.333 A 
ATOM      7  N   UNL     1      12.998  24.257   6.450  0.00  0.00    -0.280 N 
ATOM      8  C   UNL     1      14.169  23.516   6.878  0.00  0.00    +0.155 C 
ATOM      9  O   UNL     1      13.032  23.358   4.337  0.00  0.00    -0.246 OA
ATOM     10  C   UNL     1      10.810  24.737   3.482  0.00  0.00    +0.157 C 
ATOM     11  O   UNL     1       9.695  26.402   5.342  0.00  0.00    -0.265 OA
ATOM     12  C   UNL     1      12.362  25.104   7.327  0.00  0.00    +0.168 A 
ATOM     13  N   UNL     1      12.725  25.345   8.618  0.00  0.00    -0.218 NA
ATOM     14  C   UNL     1      11.832  26.210   9.055  0.00  0.00    +0.202 A 
ENDROOT
TORSDOF 0
ENDMDL
MODEL 8
REMARK VINA RESULT:      -5.2      6.137      8.608
REMARK  Name = 
REMARK  3 active torsions:
REMARK  status: ('A' for Active; 'I' for Inactive)
REMARK    1  A    between atoms: C_1  and  N_2
REMARK    2  A    between atoms: N_9  and  C_10
REMARK    3  A    between atoms: N_13  and  C_14
REMARK                            x       y       z     vdW  Elec       q    Type
REMARK                         _______ _______ _______ _____ _____    ______ ____
ROOT
ATOM      1  C   UNL     1      13.992  23.304   5.196  0.00  0.00    +0.150 C 
ATOM      2  N   UNL     1      12.808  24.114   5.060  0.00  0.00    -0.328 N 
ATOM      3  C   UNL     1      12.194  24.843   6.036  0.00  0.00    +0.151 A 
ATOM      4  C   UNL     1      12.503  25.044   7.409  0.00  0.00    +0.282 A 
ATOM      5  N   UNL     1      11.578  25.866   8.062  0.00  0.00    -0.262 N 
ATOM      6  C   UNL     1      10.452  26.470   7.467  0.00  0.00    +0.333 A 
ATOM      7  N   UNL     1      10.241  26.222   6.109  0.00  0.00    -0.280 N 
ATOM      8  C   UNL     1       9.104  26.803   5.419  0.00  0.00    +0.155 C 
ATOM      9  O   UNL     1       9.687  27.187   8.119  0.00  0.00    -0.246 OA
ATOM     10  C   UNL     1      11.824  26.103   9.471  0.00  0.00    +0.157 C 
ATOM     11  O   UNL     1      13.483  24.545   7.955  0.00  0.00    -0.265 OA
ATOM     12  C   UNL     1      11.117  25.411   5.428  0.00  0.00    +0.168 A 
ATOM     13  N   UNL     1      11.041  25.073   4.109  0.00  0.00    -0.218 NA
ATOM     14  C   UNL     1      12.080  24.287   3.912  0.00  0.00    +0.202 A 
ENDROOT
TORSDOF 0
ENDMDL
MODEL 9
REMARK VINA RESULT:      -5.2      1.662      3.942
REMARK  Name = 
REMARK  3 active torsions:
REMARK  status: ('A' for Active; 'I' for Inactive)
REMARK    1  A    between atoms: C_1  and  N_2
REMARK    2  A    between atoms: N_9  and  C_10
REMARK    3  A    between atoms: N_13  and  C_14
REMARK                            x       y       z     vdW  Elec       q    Type
REMARK                         _______ _______ _______ _____ _____    ______ ____
ROOT
ATOM      1  C   UNL     1      18.581  19.131   7.198  0.00  0.00    +0.150 C 
ATOM      2  N   UNL     1      17.484  19.771   6.517  0.00  0.00    -0.328 N 
ATOM      3  C   UNL     1      17.056  19.535   5.243  0.00  0.00    +0.151 A 
ATOM      4  C   UNL     1      17.508  18.634   4.241  0.00  0.00    +0.282 A 
ATOM      5  N   UNL     1      16.783  18.738   3.047  0.00  0.00    -0.262 N 
ATOM      6  C   UNL     1      15.702  19.612   2.816  0.00  0.00    +0.333 A 
ATOM      7  N   UNL     1      15.325  20.450   3.869  0.00  0.00    -0.280 N 
ATOM      8  C   UNL     1      14.224  21.382   3.713  0.00  0.00    +0.155 C 
ATOM      9  O   UNL     1      15.115  19.635   1.731  0.00  0.00    -0.246 OA
ATOM     10  C   UNL     1      17.200  17.857   1.975  0.00  0.00    +0.157 C 
ATOM     11  O   UNL     1      18.436  17.850   4.413  0.00  0.00    -0.265 OA
ATOM     12  C   UNL     1      16.015  20.392   5.056  0.00  0.00    +0.168 A 
ATOM     13  N   UNL     1      15.770  21.145   6.165  0.00  0.00    -0.218 NA
ATOM     14  C   UNL     1      16.675  20.747   7.038  0.00  0.00    +0.202 A 
ENDROOT
TORSDOF 0
ENDMDL
