MODEL 1
REMARK VINA RESULT:      -4.1      0.000      0.000
REMARK  Name = 
REMARK  6 active torsions:
REMARK  status: ('A' for Active; 'I' for Inactive)
REMARK    1  A    between atoms: C_2  and  C_4
REMARK    2  A    between atoms: C_4  and  C_5
REMARK    3  A    between atoms: C_5  and  O_6
REMARK    4  A    between atoms: C_5  and  C_7
REMARK    5  A    between atoms: C_5  and  C_11
REMARK    6  A    between atoms: C_7  and  C_8
REMARK                            x       y       z     vdW  Elec       q    Type
REMARK                         _______ _______ _______ _____ _____    ______ ____
ROOT
ATOM      1  C   UNL     1      10.619  25.646   8.011  0.00  0.00    +0.115 C 
ENDROOT
BRANCH   1   2
ATOM      2  C   UNL     1      12.037  25.763   8.606  0.00  0.00    +0.074 C 
ATOM      3  O   UNL     1      12.114  26.620   9.644  0.00  0.00    -0.547 OA
ATOM      4  O   UNL     1      13.044  25.202   8.203  0.00  0.00    -0.547 OA
ENDBRANCH   1   2
BRANCH   1   5
ATOM      5  O   UNL     1      10.327  26.775   7.163  0.00  0.00    -0.382 OA
ATOM      6  H   UNL     1       9.371  26.943   7.165  0.00  0.00    +0.211 HD
ENDBRANCH   1   5
BRANCH   1   7
ATOM      7  C   UNL     1      10.474  24.352   7.189  0.00  0.00    +0.093 C 
BRANCH   7   9
ATOM      8  O   UNL     1      11.527  24.880   5.129  0.00  0.00    -0.550 OA
ATOM      9  C   UNL     1      10.342  24.649   5.721  0.00  0.00    +0.045 C 
ATOM     10  O   UNL     1       9.302  24.641   5.081  0.00  0.00    -0.550 OA
ENDBRANCH   7   9
ENDBRANCH   1   7
BRANCH   1  11
ATOM     11  C   UNL     1       9.569  25.709   9.132  0.00  0.00    +0.093 C 
BRANCH  11  12
ATOM     12  C   UNL     1       8.622  26.863   8.996  0.00  0.00    +0.045 C 
ATOM     13  O   UNL     1       7.524  26.547   8.285  0.00  0.00    -0.550 OA
ATOM     14  O   UNL     1       8.770  27.991   9.437  0.00  0.00    -0.550 OA
ENDBRANCH  11  12
ENDBRANCH   1  11
TORSDOF 6
ENDMDL
MODEL 2
REMARK VINA RESULT:      -4.1      2.121      4.955
REMARK  Name = 
REMARK  6 active torsions:
REMARK  status: ('A' for Active; 'I' for Inactive)
REMARK    1  A    between atoms: C_2  and  C_4
REMARK    2  A    between atoms: C_4  and  C_5
REMARK    3  A    between atoms: C_5  and  O_6
REMARK    4  A    between atoms: C_5  and  C_7
REMARK    5  A    between atoms: C_5  and  C_11
REMARK    6  A    between atoms: C_7  and  C_8
REMARK                            x       y       z     vdW  Elec       q    Type
REMARK                         _______ _______ _______ _____ _____    ______ ____
ROOT
ATOM      1  C   UNL     1      12.497  24.632   6.938  0.00  0.00    +0.115 C 
ENDROOT
BRANCH   1   2
ATOM      2  C   UNL     1      12.537  25.141   5.482  0.00  0.00    +0.074 C 
ATOM      3  O   UNL     1      11.315  25.329   4.946  0.00  0.00    -0.547 OA
ATOM      4  O   UNL     1      13.535  25.333   4.806  0.00  0.00    -0.547 OA
ENDBRANCH   1   2
BRANCH   1   5
ATOM      5  O   UNL     1      13.340  25.439   7.785  0.00  0.00    -0.382 OA
ATOM      6  H   UNL     1      12.858  25.672   8.594  0.00  0.00    +0.211 HD
ENDBRANCH   1   5
BRANCH   1   7
ATOM      7  C   UNL     1      11.060  24.660   7.489  0.00  0.00    +0.093 C 
BRANCH   7   9
ATOM      8  O   UNL     1      10.479  26.935   7.838  0.00  0.00    -0.550 OA
ATOM      9  C   UNL     1      10.866  25.802   8.449  0.00  0.00    +0.045 C 
ATOM     10  O   UNL     1      10.982  25.742   9.663  0.00  0.00    -0.550 OA
ENDBRANCH   7   9
ENDBRANCH   1   7
BRANCH   1  11
ATOM     11  C   UNL     1      13.092  23.216   7.018  0.00  0.00    +0.093 C 
BRANCH  11  12
ATOM     12  C   UNL     1      14.451  23.177   7.650  0.00  0.00    +0.045 C 
ATOM     13  O   UNL     1      15.436  23.421   6.767  0.00  0.00    -0.550 OA
ATOM     14  O   UNL     1      14.711  22.939   8.817  0.00  0.00    -0.550 OA
ENDBRANCH  11  12
ENDBRANCH   1  11
TORSDOF 6
ENDMDL
MODEL 3
REMARK VINA RESULT:      -4.1      3.979      5.797
REMARK  Name = 
REMARK  6 active torsions:
REMARK  status: ('A' for Active; 'I' for Inactive)
REMARK    1  A    between atoms: C_2  and  C_4
REMARK    2  A    between atoms: C_4  and  C_5
REMARK    3  A    between atoms: C_5  and  O_6
REMARK    4  A    between atoms: C_5  and  C_7
REMARK    5  A    between atoms: C_5  and  C_11
REMARK    6  A    between atoms: C_7  and  C_8
REMARK                            x       y       z     vdW  Elec       q    Type
REMARK                         _______ _______ _______ _____ _____    ______ ____
ROOT
ATOM      1  C   UNL     1      12.299  23.159   4.269  0.00  0.00    +0.115 C 
ENDROOT
BRANCH   1   2
ATOM      2  C   UNL     1      12.476  24.559   4.894  0.00  0.00    +0.074 C 
ATOM      3  O   UNL     1      11.393  24.981   5.578  0.00  0.00    -0.547 OA
ATOM      4  O   UNL     1      13.450  25.286   4.786  0.00  0.00    -0.547 OA
ENDBRANCH   1   2
BRANCH   1   5
ATOM      5  O   UNL     1      12.544  23.200   2.849  0.00  0.00    -0.382 OA
ATOM      6  H   UNL     1      12.347  22.333   2.461  0.00  0.00    +0.211 HD
ENDBRANCH   1   5
BRANCH   1   7
ATOM      7  C   UNL     1      13.260  22.145   4.914  0.00  0.00    +0.093 C 
BRANCH   7   9
ATOM      8  O   UNL     1      15.458  22.684   4.199  0.00  0.00    -0.550 OA
ATOM      9  C   UNL     1      14.425  21.845   4.011  0.00  0.00    +0.045 C 
ATOM     10  O   UNL     1      14.492  20.920   3.216  0.00  0.00    -0.550 OA
ENDBRANCH   7   9
ENDBRANCH   1   7
BRANCH   1  11
ATOM     11  C   UNL     1      10.838  22.701   4.407  0.00  0.00    +0.093 C 
BRANCH  11  12
ATOM     12  C   UNL     1      10.095  22.680   3.104  0.00  0.00    +0.045 C 
ATOM     13  O   UNL     1       9.690  23.905   2.722  0.00  0.00    -0.550 OA
ATOM     14  O   UNL     1       9.835  21.702   2.423  0.00  0.00    -0.550 OA
ENDBRANCH  11  12
ENDBRANCH   1  11
TORSDOF 6
ENDMDL
MODEL 4
REMARK VINA RESULT:      -4.1      2.484      3.788
REMARK  Name = 
REMARK  6 active torsions:
REMARK  status: ('A' for Active; 'I' for Inactive)
REMARK    1  A    between atoms: C_2  and  C_4
REMARK    2  A    between atoms: C_4  and  C_5
REMARK    3  A    between atoms: C_5  and  O_6
REMARK    4  A    between atoms: C_5  and  C_7
REMARK    5  A    between atoms: C_5  and  C_11
REMARK    6  A    between atoms: C_7  and  C_8
REMARK                            x       y       z     vdW  Elec       q    Type
REMARK                         _______ _______ _______ _____ _____    ______ ____
ROOT
ATOM      1  C   UNL     1      13.140  24.285   5.702  0.00  0.00    +0.115 C 
ENDROOT
BRANCH   1   2
ATOM      2  C   UNL     1      14.576  23.721   5.727  0.00  0.00    +0.074 C 
ATOM      3  O   UNL     1      14.963  23.291   6.945  0.00  0.00    -0.547 OA
ATOM      4  O   UNL     1      15.357  23.679   4.789  0.00  0.00    -0.547 OA
ENDBRANCH   1   2
BRANCH   1   5
ATOM      5  O   UNL     1      13.153  25.704   5.446  0.00  0.00    -0.382 OA
ATOM      6  H   UNL     1      13.938  26.100   5.856  0.00  0.00    +0.211 HD
ENDBRANCH   1   5
BRANCH   1   7
ATOM      7  C   UNL     1      12.297  23.588   4.619  0.00  0.00    +0.093 C 
BRANCH   7   9
ATOM      8  O   UNL     1      11.731  24.843   2.685  0.00  0.00    -0.550 OA
ATOM      9  C   UNL     1      11.363  24.557   3.946  0.00  0.00    +0.045 C 
ATOM     10  O   UNL     1      10.343  25.020   4.432  0.00  0.00    -0.550 OA
ENDBRANCH   7   9
ENDBRANCH   1   7
BRANCH   1  11
ATOM     11  C   UNL     1      12.492  24.137   7.088  0.00  0.00    +0.093 C 
BRANCH  11  12
ATOM     12  C   UNL     1      12.072  25.443   7.692  0.00  0.00    +0.045 C 
ATOM     13  O   UNL     1      12.990  25.937   8.542  0.00  0.00    -0.550 OA
ATOM     14  O   UNL     1      11.026  26.040   7.496  0.00  0.00    -0.550 OA
ENDBRANCH  11  12
ENDBRANCH   1  11
TORSDOF 6
ENDMDL
MODEL 5
REMARK VINA RESULT:      -4.1      2.280      5.413
REMARK  Name = 
REMARK  6 active torsions:
REMARK  status: ('A' for Active; 'I' for Inactive)
REMARK    1  A    between atoms: C_2  and  C_4
REMARK    2  A    between atoms: C_4  and  C_5
REMARK    3  A    between atoms: C_5  and  O_6
REMARK    4  A    between atoms: C_5  and  C_7
REMARK    5  A    between atoms: C_5  and  C_11
REMARK    6  A    between atoms: C_7  and  C_8
REMARK                            x       y       z     vdW  Elec       q    Type
REMARK                         _______ _______ _______ _____ _____    ______ ____
ROOT
ATOM      1  C   UNL     1      12.181  24.651   5.653  0.00  0.00    +0.115 C 
ENDROOT
BRANCH   1   2
ATOM      2  C   UNL     1      11.193  24.866   4.488  0.00  0.00    +0.074 C 
ATOM      3  O   UNL     1      11.748  24.686   3.273  0.00  0.00    -0.547 OA
ATOM      4  O   UNL     1      10.024  25.209   4.579  0.00  0.00    -0.547 OA
ENDBRANCH   1   2
BRANCH   1   5
ATOM      5  O   UNL     1      13.097  25.760   5.757  0.00  0.00    -0.382 OA
ATOM      6  H   UNL     1      13.041  26.145   6.645  0.00  0.00    +0.211 HD
ENDBRANCH   1   5
BRANCH   1   7
ATOM      7  C   UNL     1      11.430  24.496   6.988  0.00  0.00    +0.093 C 
BRANCH   7   9
ATOM      8  O   UNL     1      10.768  26.636   7.774  0.00  0.00    -0.550 OA
ATOM      9  C   UNL     1      11.689  25.665   7.900  0.00  0.00    +0.045 C 
ATOM     10  O   UNL     1      12.592  25.745   8.718  0.00  0.00    -0.550 OA
ENDBRANCH   7   9
ENDBRANCH   1   7
BRANCH   1  11
ATOM     11  C   UNL     1      13.069  23.428   5.373  0.00  0.00    +0.093 C 
BRANCH  11  12
ATOM     12  C   UNL     1      14.514  23.653   5.702  0.00  0.00    +0.045 C 
ATOM     13  O   UNL     1      14.774  23.497   7.012  0.00  0.00    -0.550 OA
ATOM     14  O   UNL     1      15.403  23.962   4.927  0.00  0.00    -0.550 OA
ENDBRANCH  11  12
ENDBRANCH   1  11
TORSDOF 6
ENDMDL
MODEL 6
REMARK VINA RESULT:      -4.1      2.917      5.097
REMARK  Name = 
REMARK  6 active torsions:
REMARK  status: ('A' for Active; 'I' for Inactive)
REMARK    1  A    between atoms: C_2  and  C_4
REMARK    2  A    between atoms: C_4  and  C_5
REMARK    3  A    between atoms: C_5  and  O_6
REMARK    4  A    between atoms: C_5  and  C_7
REMARK    5  A    between atoms: C_5  and  C_11
REMARK    6  A    between atoms: C_7  and  C_8
REMARK                            x       y       z     vdW  Elec       q    Type
REMARK                         _______ _______ _______ _____ _____    ______ ____
ROOT
ATOM      1  C   UNL     1      11.933  24.482   4.771  0.00  0.00    +0.115 C 
ENDROOT
BRANCH   1   2
ATOM      2  C   UNL     1      11.572  25.527   5.847  0.00  0.00    +0.074 C 
ATOM      3  O   UNL     1      12.499  25.639   6.819  0.00  0.00    -0.547 OA
ATOM      4  O   UNL     1      10.548  26.190   5.903  0.00  0.00    -0.547 OA
ENDBRANCH   1   2
BRANCH   1   5
ATOM      5  O   UNL     1      12.721  25.080   3.723  0.00  0.00    -0.382 OA
ATOM      6  H   UNL     1      13.051  25.944   4.018  0.00  0.00    +0.211 HD
ENDBRANCH   1   5
BRANCH   1   7
ATOM      7  C   UNL     1      12.724  23.313   5.387  0.00  0.00    +0.093 C 
BRANCH   7   9
ATOM      8  O   UNL     1      13.864  22.193   3.632  0.00  0.00    -0.550 OA
ATOM      9  C   UNL     1      14.007  23.069   4.641  0.00  0.00    +0.045 C 
ATOM     10  O   UNL     1      15.075  23.622   4.857  0.00  0.00    -0.550 OA
ENDBRANCH   7   9
ENDBRANCH   1   7
BRANCH   1  11
ATOM     11  C   UNL     1      10.658  23.981   4.074  0.00  0.00    +0.093 C 
BRANCH  11  12
ATOM     12  C   UNL     1      10.477  24.537   2.693  0.00  0.00    +0.045 C 
ATOM     13  O   UNL     1      11.131  23.821   1.760  0.00  0.00    -0.550 OA
ATOM     14  O   UNL     1       9.842  25.529   2.379  0.00  0.00    -0.550 OA
ENDBRANCH  11  12
ENDBRANCH   1  11
TORSDOF 6
ENDMDL
MODEL 7
REMARK VINA RESULT:      -4.1      4.020      6.725
REMARK  Name = 
REMARK  6 active torsions:
REMARK  status: ('A' for Active; 'I' for Inactive)
REMARK    1  A    between atoms: C_2  and  C_4
REMARK    2  A    between atoms: C_4  and  C_5
REMARK    3  A    between atoms: C_5  and  O_6
REMARK    4  A    between atoms: C_5  and  C_7
REMARK    5  A    between atoms: C_5  and  C_11
REMARK    6  A    between atoms: C_7  and  C_8
REMARK                            x       y       z     vdW  Elec       q    Type
REMARK                         _______ _______ _______ _____ _____    ______ ____
ROOT
ATOM      1  C   UNL     1      14.258  23.637   6.441  0.00  0.00    +0.115 C 
ENDROOT
BRANCH   1   2
ATOM      2  C   UNL     1      13.293  24.677   5.834  0.00  0.00    +0.074 C 
ATOM      3  O   UNL     1      13.725  25.192   4.665  0.00  0.00    -0.547 OA
ATOM      4  O   UNL     1      12.250  25.076   6.327  0.00  0.00    -0.547 OA
ENDBRANCH   1   2
BRANCH   1   5
ATOM      5  O   UNL     1      15.619  23.919   6.058  0.00  0.00    -0.382 OA
ATOM      6  H   UNL     1      15.805  23.510   5.198  0.00  0.00    +0.211 HD
ENDBRANCH   1   5
BRANCH   1   7
ATOM      7  C   UNL     1      14.161  23.631   7.977  0.00  0.00    +0.093 C 
BRANCH   7   9
ATOM      8  O   UNL     1      16.417  23.355   8.663  0.00  0.00    -0.550 OA
ATOM      9  C   UNL     1      15.218  22.751   8.588  0.00  0.00    +0.045 C 
ATOM     10  O   UNL     1      15.043  21.626   9.030  0.00  0.00    -0.550 OA
ENDBRANCH   7   9
ENDBRANCH   1   7
BRANCH   1  11
ATOM     11  C   UNL     1      13.963  22.244   5.863  0.00  0.00    +0.093 C 
BRANCH  11  12
ATOM     12  C   UNL     1      15.078  21.701   5.020  0.00  0.00    +0.045 C 
ATOM     13  O   UNL     1      14.958  22.043   3.724  0.00  0.00    -0.550 OA
ATOM     14  O   UNL     1      16.009  21.007   5.393  0.00  0.00    -0.550 OA
ENDBRANCH  11  12
ENDBRANCH   1  11
TORSDOF 6
ENDMDL
MODEL 8
REMARK VINA RESULT:      -4.0      5.245      7.665
REMARK  Name = 
REMARK  6 active torsions:
REMARK  status: ('A' for Active; 'I' for Inactive)
REMARK    1  A    between atoms: C_2  and  C_4
REMARK    2  A    between atoms: C_4  and  C_5
REMARK    3  A    between atoms: C_5  and  O_6
REMARK    4  A    between atoms: C_5  and  C_7
REMARK    5  A    between atoms: C_5  and  C_11
REMARK    6  A    between atoms: C_7  and  C_8
REMARK                            x       y       z     vdW  Elec       q    Type
REMARK                         _______ _______ _______ _____ _____    ______ ____
ROOT
ATOM      1  C   UNL     1      14.891  21.946   6.510  0.00  0.00    +0.115 C 
ENDROOT
BRANCH   1   2
ATOM      2  C   UNL     1      14.727  23.349   5.890  0.00  0.00    +0.074 C 
ATOM      3  O   UNL     1      13.736  24.071   6.451  0.00  0.00    -0.547 OA
ATOM      4  O   UNL     1      15.364  23.811   4.955  0.00  0.00    -0.547 OA
ENDBRANCH   1   2
BRANCH   1   5
ATOM      5  O   UNL     1      16.250  21.484   6.375  0.00  0.00    -0.382 OA
ATOM      6  H   UNL     1      16.528  21.560   5.449  0.00  0.00    +0.211 HD
ENDBRANCH   1   5
BRANCH   1   7
ATOM      7  C   UNL     1      14.511  21.958   8.002  0.00  0.00    +0.093 C 
BRANCH   7   9
ATOM      8  O   UNL     1      16.046  20.813   9.404  0.00  0.00    -0.550 OA
ATOM      9  C   UNL     1      15.734  22.010   8.876  0.00  0.00    +0.045 C 
ATOM     10  O   UNL     1      16.430  22.993   9.073  0.00  0.00    -0.550 OA
ENDBRANCH   7   9
ENDBRANCH   1   7
BRANCH   1  11
ATOM     11  C   UNL     1      14.045  20.924   5.732  0.00  0.00    +0.093 C 
BRANCH  11  12
ATOM     12  C   UNL     1      14.849  20.084   4.786  0.00  0.00    +0.045 C 
ATOM     13  O   UNL     1      15.000  18.819   5.221  0.00  0.00    -0.550 OA
ATOM     14  O   UNL     1      15.355  20.440   3.735  0.00  0.00    -0.550 OA
ENDBRANCH  11  12
ENDBRANCH   1  11
TORSDOF 6
ENDMDL
MODEL 9
REMARK VINA RESULT:      -4.0      5.922      8.449
REMARK  Name = 
REMARK  6 active torsions:
REMARK  status: ('A' for Active; 'I' for Inactive)
REMARK    1  A    between atoms: C_2  and  C_4
REMARK    2  A    between atoms: C_4  and  C_5
REMARK    3  A    between atoms: C_5  and  O_6
REMARK    4  A    between atoms: C_5  and  C_7
REMARK    5  A    between atoms: C_5  and  C_11
REMARK    6  A    between atoms: C_7  and  C_8
REMARK                            x       y       z     vdW  Elec       q    Type
REMARK                         _______ _______ _______ _____ _____    ______ ____
ROOT
ATOM      1  C   UNL     1      15.023  20.819   5.038  0.00  0.00    +0.115 C 
ENDROOT
BRANCH   1   2
ATOM      2  C   UNL     1      14.661  20.869   3.539  0.00  0.00    +0.074 C 
ATOM      3  O   UNL     1      13.870  21.911   3.212  0.00  0.00    -0.547 OA
ATOM      4  O   UNL     1      14.983  20.057   2.685  0.00  0.00    -0.547 OA
ENDBRANCH   1   2
BRANCH   1   5
ATOM      5  O   UNL     1      15.955  21.868   5.372  0.00  0.00    -0.382 OA
ATOM      6  H   UNL     1      15.490  22.576   5.845  0.00  0.00    +0.211 HD
ENDBRANCH   1   5
BRANCH   1   7
ATOM      7  C   UNL     1      13.765  20.970   5.911  0.00  0.00    +0.093 C 
BRANCH   7   9
ATOM      8  O   UNL     1      13.570  23.221   6.640  0.00  0.00    -0.550 OA
ATOM      9  C   UNL     1      13.973  21.989   6.998  0.00  0.00    +0.045 C 
ATOM     10  O   UNL     1      14.406  21.762   8.117  0.00  0.00    -0.550 OA
ENDBRANCH   7   9
ENDBRANCH   1   7
BRANCH   1  11
ATOM     11  C   UNL     1      15.765  19.511   5.357  0.00  0.00    +0.093 C 
BRANCH  11  12
ATOM     12  C   UNL     1      17.141  19.727   5.911  0.00  0.00    +0.045 C 
ATOM     13  O   UNL     1      17.132  19.960   7.236  0.00  0.00    -0.550 OA
ATOM     14  O   UNL     1      18.191  19.726   5.290  0.00  0.00    -0.550 OA
ENDBRANCH  11  12
ENDBRANCH   1  11
TORSDOF 6
ENDMDL
