MODEL 1
REMARK VINA RESULT:      -5.1      0.000      0.000
REMARK  Name = 
REMARK  11 active torsions:
REMARK  status: ('A' for Active; 'I' for Inactive)
REMARK    1  A    between atoms: C_2  and  C_4
REMARK    2  A    between atoms: C_4  and  N_5
REMARK    3  A    between atoms: N_5  and  C_6
REMARK    4  A    between atoms: N_5  and  C_10
REMARK    5  A    between atoms: C_6  and  C_7
REMARK    6  A    between atoms: C_10  and  C_11
REMARK    7  A    between atoms: C_11  and  N_12
REMARK    8  A    between atoms: N_12  and  C_13
REMARK    9  A    between atoms: N_12  and  C_17
REMARK   10  A    between atoms: C_13  and  C_14
REMARK   11  A    between atoms: C_17  and  C_18
REMARK                            x       y       z     vdW  Elec       q    Type
REMARK                         _______ _______ _______ _____ _____    ______ ____
ROOT
ATOM      1  C   UNL     1      14.933  19.994   5.429  0.00  0.00    +0.184 C 
ENDROOT
BRANCH   1   2
ATOM      2  N   UNL     1      15.848  18.830   5.333  0.00  0.00    +0.247 N 
ATOM      3  H   UNL     1      15.925  18.405   6.257  0.00  0.00    +0.204 HD
BRANCH   2   4
ATOM      4  C   UNL     1      15.283  17.791   4.432  0.00  0.00    +0.185 C 
BRANCH   4   6
ATOM      5  O   UNL     1      16.407  17.387   2.360  0.00  0.00    -0.544 OA
ATOM      6  C   UNL     1      15.450  18.131   2.953  0.00  0.00    +0.086 C 
ATOM      7  O   UNL     1      14.804  18.933   2.297  0.00  0.00    -0.544 OA
ENDBRANCH   4   6
ENDBRANCH   2   4
BRANCH   2   8
ATOM      8  C   UNL     1      17.233  19.238   4.974  0.00  0.00    +0.185 C 
BRANCH   8   9
ATOM      9  C   UNL     1      18.350  18.275   5.383  0.00  0.00    +0.086 C 
ATOM     10  O   UNL     1      18.966  17.692   4.322  0.00  0.00    -0.544 OA
ATOM     11  O   UNL     1      18.656  17.993   6.530  0.00  0.00    -0.544 OA
ENDBRANCH   8   9
ENDBRANCH   2   8
ENDBRANCH   1   2
BRANCH   1  12
ATOM     12  C   UNL     1      15.605  21.303   4.923  0.00  0.00    +0.184 C 
BRANCH  12  13
ATOM     13  N   UNL     1      15.373  22.458   5.787  0.00  0.00    +0.247 N 
ATOM     14  H   UNL     1      14.414  22.240   6.054  0.00  0.00    +0.204 HD
BRANCH  13  15
ATOM     15  C   UNL     1      15.232  23.749   5.116  0.00  0.00    +0.185 C 
BRANCH  15  16
ATOM     16  C   UNL     1      13.744  24.107   5.013  0.00  0.00    +0.086 C 
ATOM     17  O   UNL     1      13.550  25.400   4.678  0.00  0.00    -0.544 OA
ATOM     18  O   UNL     1      12.781  23.385   5.202  0.00  0.00    -0.544 OA
ENDBRANCH  15  16
ENDBRANCH  13  15
BRANCH  13  19
ATOM     19  C   UNL     1      15.902  22.462   7.149  0.00  0.00    +0.185 C 
BRANCH  19  20
ATOM     20  C   UNL     1      14.858  22.639   8.242  0.00  0.00    +0.086 C 
ATOM     21  O   UNL     1      14.755  21.575   9.064  0.00  0.00    -0.544 OA
ATOM     22  O   UNL     1      14.160  23.624   8.427  0.00  0.00    -0.544 OA
ENDBRANCH  19  20
ENDBRANCH  13  19
ENDBRANCH  12  13
ENDBRANCH   1  12
TORSDOF 11
ENDMDL
MODEL 2
REMARK VINA RESULT:      -5.1      3.263      5.663
REMARK  Name = 
REMARK  11 active torsions:
REMARK  status: ('A' for Active; 'I' for Inactive)
REMARK    1  A    between atoms: C_2  and  C_4
REMARK    2  A    between atoms: C_4  and  N_5
REMARK    3  A    between atoms: N_5  and  C_6
REMARK    4  A    between atoms: N_5  and  C_10
REMARK    5  A    between atoms: C_6  and  C_7
REMARK    6  A    between atoms: C_10  and  C_11
REMARK    7  A    between atoms: C_11  and  N_12
REMARK    8  A    between atoms: N_12  and  C_13
REMARK    9  A    between atoms: N_12  and  C_17
REMARK   10  A    between atoms: C_13  and  C_14
REMARK   11  A    between atoms: C_17  and  C_18
REMARK                            x       y       z     vdW  Elec       q    Type
REMARK                         _______ _______ _______ _____ _____    ______ ____
ROOT
ATOM      1  C   UNL     1      13.414  24.981   4.913  0.00  0.00    +0.184 C 
ENDROOT
BRANCH   1   2
ATOM      2  N   UNL     1      13.817  23.702   5.546  0.00  0.00    +0.247 N 
ATOM      3  H   UNL     1      13.181  22.970   5.226  0.00  0.00    +0.204 HD
BRANCH   2   4
ATOM      4  C   UNL     1      15.180  23.304   5.106  0.00  0.00    +0.185 C 
BRANCH   4   6
ATOM      5  O   UNL     1      16.013  21.084   4.792  0.00  0.00    -0.544 OA
ATOM      6  C   UNL     1      15.188  22.020   4.279  0.00  0.00    +0.086 C 
ATOM      7  O   UNL     1      14.522  21.771   3.286  0.00  0.00    -0.544 OA
ENDBRANCH   4   6
ENDBRANCH   2   4
BRANCH   2   8
ATOM      8  C   UNL     1      13.656  23.738   7.025  0.00  0.00    +0.185 C 
BRANCH   8   9
ATOM      9  C   UNL     1      14.754  23.050   7.842  0.00  0.00    +0.086 C 
ATOM     10  O   UNL     1      14.517  21.728   8.046  0.00  0.00    -0.544 OA
ATOM     11  O   UNL     1      15.729  23.603   8.322  0.00  0.00    -0.544 OA
ENDBRANCH   8   9
ENDBRANCH   2   8
ENDBRANCH   1   2
BRANCH   1  12
ATOM     12  C   UNL     1      12.195  25.627   5.633  0.00  0.00    +0.184 C 
BRANCH  12  13
ATOM     13  N   UNL     1      10.917  25.372   4.973  0.00  0.00    +0.247 N 
ATOM     14  H   UNL     1      10.869  26.231   4.427  0.00  0.00    +0.204 HD
BRANCH  13  15
ATOM     15  C   UNL     1       9.725  25.463   5.816  0.00  0.00    +0.185 C 
BRANCH  15  16
ATOM     16  C   UNL     1       9.365  26.939   6.026  0.00  0.00    +0.086 C 
ATOM     17  O   UNL     1       8.949  27.532   4.888  0.00  0.00    -0.544 OA
ATOM     18  O   UNL     1       9.425  27.589   7.055  0.00  0.00    -0.544 OA
ENDBRANCH  15  16
ENDBRANCH  13  15
BRANCH  13  19
ATOM     19  C   UNL     1      10.860  24.470   3.824  0.00  0.00    +0.185 C 
BRANCH  19  20
ATOM     20  C   UNL     1      10.292  23.091   4.119  0.00  0.00    +0.086 C 
ATOM     21  O   UNL     1      11.107  22.322   4.870  0.00  0.00    -0.544 OA
ATOM     22  O   UNL     1       9.207  22.659   3.758  0.00  0.00    -0.544 OA
ENDBRANCH  19  20
ENDBRANCH  13  19
ENDBRANCH  12  13
ENDBRANCH   1  12
TORSDOF 11
ENDMDL
MODEL 3
REMARK VINA RESULT:      -5.0      2.088      5.786
REMARK  Name = 
REMARK  11 active torsions:
REMARK  status: ('A' for Active; 'I' for Inactive)
REMARK    1  A    between atoms: C_2  and  C_4
REMARK    2  A    between atoms: C_4  and  N_5
REMARK    3  A    between atoms: N_5  and  C_6
REMARK    4  A    between atoms: N_5  and  C_10
REMARK    5  A    between atoms: C_6  and  C_7
REMARK    6  A    between atoms: C_10  and  C_11
REMARK    7  A    between atoms: C_11  and  N_12
REMARK    8  A    between atoms: N_12  and  C_13
REMARK    9  A    between atoms: N_12  and  C_17
REMARK   10  A    between atoms: C_13  and  C_14
REMARK   11  A    between atoms: C_17  and  C_18
REMARK                            x       y       z     vdW  Elec       q    Type
REMARK                         _______ _______ _______ _____ _____    ______ ____
ROOT
ATOM      1  C   UNL     1      15.074  23.747   4.989  0.00  0.00    +0.184 C 
ENDROOT
BRANCH   1   2
ATOM      2  N   UNL     1      13.720  24.087   4.488  0.00  0.00    +0.247 N 
ATOM      3  H   UNL     1      13.801  24.378   3.514  0.00  0.00    +0.204 HD
BRANCH   2   4
ATOM      4  C   UNL     1      12.839  22.890   4.503  0.00  0.00    +0.185 C 
BRANCH   4   6
ATOM      5  O   UNL     1      10.567  22.354   3.980  0.00  0.00    -0.544 OA
ATOM      6  C   UNL     1      11.663  23.003   3.535  0.00  0.00    +0.086 C 
ATOM      7  O   UNL     1      11.621  23.628   2.486  0.00  0.00    -0.544 OA
ENDBRANCH   4   6
ENDBRANCH   2   4
BRANCH   2   8
ATOM      8  C   UNL     1      13.142  25.259   5.198  0.00  0.00    +0.185 C 
BRANCH   8   9
ATOM      9  C   UNL     1      12.443  24.967   6.529  0.00  0.00    +0.086 C 
ATOM     10  O   UNL     1      11.092  25.092   6.461  0.00  0.00    -0.544 OA
ATOM     11  O   UNL     1      13.005  24.697   7.578  0.00  0.00    -0.544 OA
ENDBRANCH   8   9
ENDBRANCH   2   8
ENDBRANCH   1   2
BRANCH   1  12
ATOM     12  C   UNL     1      15.386  22.230   4.837  0.00  0.00    +0.184 C 
BRANCH  12  13
ATOM     13  N   UNL     1      15.844  21.595   6.070  0.00  0.00    +0.247 N 
ATOM     14  H   UNL     1      16.552  22.284   6.325  0.00  0.00    +0.204 HD
BRANCH  13  15
ATOM     15  C   UNL     1      16.631  20.373   5.914  0.00  0.00    +0.185 C 
BRANCH  15  16
ATOM     16  C   UNL     1      15.862  19.385   5.027  0.00  0.00    +0.086 C 
ATOM     17  O   UNL     1      16.494  19.148   3.859  0.00  0.00    -0.544 OA
ATOM     18  O   UNL     1      14.799  18.837   5.257  0.00  0.00    -0.544 OA
ENDBRANCH  15  16
ENDBRANCH  13  15
BRANCH  13  19
ATOM     19  C   UNL     1      15.060  21.738   7.295  0.00  0.00    +0.185 C 
BRANCH  19  20
ATOM     20  C   UNL     1      15.735  22.537   8.399  0.00  0.00    +0.086 C 
ATOM     21  O   UNL     1      15.317  22.204   9.637  0.00  0.00    -0.544 OA
ATOM     22  O   UNL     1      16.590  23.398   8.255  0.00  0.00    -0.544 OA
ENDBRANCH  19  20
ENDBRANCH  13  19
ENDBRANCH  12  13
ENDBRANCH   1  12
TORSDOF 11
ENDMDL
MODEL 4
REMARK VINA RESULT:      -5.0      3.408      6.183
REMARK  Name = 
REMARK  11 active torsions:
REMARK  status: ('A' for Active; 'I' for Inactive)
REMARK    1  A    between atoms: C_2  and  C_4
REMARK    2  A    between atoms: C_4  and  N_5
REMARK    3  A    between atoms: N_5  and  C_6
REMARK    4  A    between atoms: N_5  and  C_10
REMARK    5  A    between atoms: C_6  and  C_7
REMARK    6  A    between atoms: C_10  and  C_11
REMARK    7  A    between atoms: C_11  and  N_12
REMARK    8  A    between atoms: N_12  and  C_13
REMARK    9  A    between atoms: N_12  and  C_17
REMARK   10  A    between atoms: C_13  and  C_14
REMARK   11  A    between atoms: C_17  and  C_18
REMARK                            x       y       z     vdW  Elec       q    Type
REMARK                         _______ _______ _______ _____ _____    ______ ____
ROOT
ATOM      1  C   UNL     1      11.897  23.174   6.678  0.00  0.00    +0.184 C 
ENDROOT
BRANCH   1   2
ATOM      2  N   UNL     1      13.023  24.136   6.752  0.00  0.00    +0.247 N 
ATOM      3  H   UNL     1      13.736  23.851   6.080  0.00  0.00    +0.204 HD
BRANCH   2   4
ATOM      4  C   UNL     1      12.578  25.496   6.349  0.00  0.00    +0.185 C 
BRANCH   4   6
ATOM      5  O   UNL     1      10.924  26.164   7.943  0.00  0.00    -0.544 OA
ATOM      6  C   UNL     1      11.109  25.761   6.669  0.00  0.00    +0.086 C 
ATOM      7  O   UNL     1      10.157  25.686   5.906  0.00  0.00    -0.544 OA
ENDBRANCH   4   6
ENDBRANCH   2   4
BRANCH   2   8
ATOM      8  C   UNL     1      13.700  24.100   8.077  0.00  0.00    +0.185 C 
BRANCH   8   9
ATOM      9  C   UNL     1      14.920  23.182   8.189  0.00  0.00    +0.086 C 
ATOM     10  O   UNL     1      14.602  21.915   8.563  0.00  0.00    -0.544 OA
ATOM     11  O   UNL     1      16.079  23.523   8.019  0.00  0.00    -0.544 OA
ENDBRANCH   8   9
ENDBRANCH   2   8
ENDBRANCH   1   2
BRANCH   1  12
ATOM     12  C   UNL     1      12.228  21.962   5.758  0.00  0.00    +0.184 C 
BRANCH  12  13
ATOM     13  N   UNL     1      12.527  22.333   4.378  0.00  0.00    +0.247 N 
ATOM     14  H   UNL     1      12.805  23.299   4.551  0.00  0.00    +0.204 HD
BRANCH  13  15
ATOM     15  C   UNL     1      11.377  22.489   3.487  0.00  0.00    +0.185 C 
BRANCH  15  16
ATOM     16  C   UNL     1      11.420  23.879   2.841  0.00  0.00    +0.086 C 
ATOM     17  O   UNL     1      10.683  23.943   1.713  0.00  0.00    -0.544 OA
ATOM     18  O   UNL     1      12.026  24.867   3.219  0.00  0.00    -0.544 OA
ENDBRANCH  15  16
ENDBRANCH  13  15
BRANCH  13  19
ATOM     19  C   UNL     1      13.794  21.927   3.774  0.00  0.00    +0.185 C 
BRANCH  19  20
ATOM     20  C   UNL     1      15.036  22.435   4.489  0.00  0.00    +0.086 C 
ATOM     21  O   UNL     1      15.887  21.454   4.853  0.00  0.00    -0.544 OA
ATOM     22  O   UNL     1      15.312  23.601   4.727  0.00  0.00    -0.544 OA
ENDBRANCH  19  20
ENDBRANCH  13  19
ENDBRANCH  12  13
ENDBRANCH   1  12
TORSDOF 11
ENDMDL
MODEL 5
REMARK VINA RESULT:      -5.0      2.054      4.246
REMARK  Name = 
REMARK  11 active torsions:
REMARK  status: ('A' for Active; 'I' for Inactive)
REMARK    1  A    between atoms: C_2  and  C_4
REMARK    2  A    between atoms: C_4  and  N_5
REMARK    3  A    between atoms: N_5  and  C_6
REMARK    4  A    between atoms: N_5  and  C_10
REMARK    5  A    between atoms: C_6  and  C_7
REMARK    6  A    between atoms: C_10  and  C_11
REMARK    7  A    between atoms: C_11  and  N_12
REMARK    8  A    between atoms: N_12  and  C_13
REMARK    9  A    between atoms: N_12  and  C_17
REMARK   10  A    between atoms: C_13  and  C_14
REMARK   11  A    between atoms: C_17  and  C_18
REMARK                            x       y       z     vdW  Elec       q    Type
REMARK                         _______ _______ _______ _____ _____    ______ ____
ROOT
ATOM      1  C   UNL     1      15.383  21.837   4.622  0.00  0.00    +0.184 C 
ENDROOT
BRANCH   1   2
ATOM      2  N   UNL     1      16.319  21.299   5.638  0.00  0.00    +0.247 N 
ATOM      3  H   UNL     1      17.130  21.915   5.688  0.00  0.00    +0.204 HD
BRANCH   2   4
ATOM      4  C   UNL     1      15.693  21.308   6.986  0.00  0.00    +0.185 C 
BRANCH   4   6
ATOM      5  O   UNL     1      17.256  21.306   8.797  0.00  0.00    -0.544 OA
ATOM      6  C   UNL     1      16.500  22.101   8.012  0.00  0.00    +0.086 C 
ATOM      7  O   UNL     1      16.548  23.315   8.143  0.00  0.00    -0.544 OA
ENDBRANCH   4   6
ENDBRANCH   2   4
BRANCH   2   8
ATOM      8  C   UNL     1      16.863  19.971   5.245  0.00  0.00    +0.185 C 
BRANCH   8   9
ATOM      9  C   UNL     1      15.981  19.123   4.325  0.00  0.00    +0.086 C 
ATOM     10  O   UNL     1      15.001  18.457   4.990  0.00  0.00    -0.544 OA
ATOM     11  O   UNL     1      16.136  18.991   3.122  0.00  0.00    -0.544 OA
ENDBRANCH   8   9
ENDBRANCH   2   8
ENDBRANCH   1   2
BRANCH   1  12
ATOM     12  C   UNL     1      15.113  23.356   4.828  0.00  0.00    +0.184 C 
BRANCH  12  13
ATOM     13  N   UNL     1      13.705  23.727   4.708  0.00  0.00    +0.247 N 
ATOM     14  H   UNL     1      13.417  23.486   5.655  0.00  0.00    +0.204 HD
BRANCH  13  15
ATOM     15  C   UNL     1      12.873  22.846   3.888  0.00  0.00    +0.185 C 
BRANCH  15  16
ATOM     16  C   UNL     1      11.675  22.366   4.717  0.00  0.00    +0.086 C 
ATOM     17  O   UNL     1      12.052  21.819   5.892  0.00  0.00    -0.544 OA
ATOM     18  O   UNL     1      10.492  22.418   4.432  0.00  0.00    -0.544 OA
ENDBRANCH  15  16
ENDBRANCH  13  15
BRANCH  13  19
ATOM     19  C   UNL     1      13.315  25.132   4.794  0.00  0.00    +0.185 C 
BRANCH  19  20
ATOM     20  C   UNL     1      12.299  25.450   5.880  0.00  0.00    +0.086 C 
ATOM     21  O   UNL     1      12.766  25.250   7.129  0.00  0.00    -0.544 OA
ATOM     22  O   UNL     1      11.162  25.867   5.713  0.00  0.00    -0.544 OA
ENDBRANCH  19  20
ENDBRANCH  13  19
ENDBRANCH  12  13
ENDBRANCH   1  12
TORSDOF 11
ENDMDL
MODEL 6
REMARK VINA RESULT:      -5.0      3.198      7.226
REMARK  Name = 
REMARK  11 active torsions:
REMARK  status: ('A' for Active; 'I' for Inactive)
REMARK    1  A    between atoms: C_2  and  C_4
REMARK    2  A    between atoms: C_4  and  N_5
REMARK    3  A    between atoms: N_5  and  C_6
REMARK    4  A    between atoms: N_5  and  C_10
REMARK    5  A    between atoms: C_6  and  C_7
REMARK    6  A    between atoms: C_10  and  C_11
REMARK    7  A    between atoms: C_11  and  N_12
REMARK    8  A    between atoms: N_12  and  C_13
REMARK    9  A    between atoms: N_12  and  C_17
REMARK   10  A    between atoms: C_13  and  C_14
REMARK   11  A    between atoms: C_17  and  C_18
REMARK                            x       y       z     vdW  Elec       q    Type
REMARK                         _______ _______ _______ _____ _____    ______ ____
ROOT
ATOM      1  C   UNL     1      13.116  25.298   5.090  0.00  0.00    +0.184 C 
ENDROOT
BRANCH   1   2
ATOM      2  N   UNL     1      11.696  25.299   4.660  0.00  0.00    +0.247 N 
ATOM      3  H   UNL     1      11.510  26.173   4.167  0.00  0.00    +0.204 HD
BRANCH   2   4
ATOM      4  C   UNL     1      11.440  24.200   3.693  0.00  0.00    +0.185 C 
BRANCH   4   6
ATOM      5  O   UNL     1       9.515  22.823   4.043  0.00  0.00    -0.544 OA
ATOM      6  C   UNL     1      10.823  22.965   4.345  0.00  0.00    +0.086 C 
ATOM      7  O   UNL     1      11.387  22.127   5.032  0.00  0.00    -0.544 OA
ENDBRANCH   4   6
ENDBRANCH   2   4
BRANCH   2   8
ATOM      8  C   UNL     1      10.764  25.300   5.820  0.00  0.00    +0.185 C 
BRANCH   8   9
ATOM      9  C   UNL     1       9.918  26.562   6.008  0.00  0.00    +0.086 C 
ATOM     10  O   UNL     1       9.936  27.032   7.283  0.00  0.00    -0.544 OA
ATOM     11  O   UNL     1       9.242  27.095   5.144  0.00  0.00    -0.544 OA
ENDBRANCH   8   9
ENDBRANCH   2   8
ENDBRANCH   1   2
BRANCH   1  12
ATOM     12  C   UNL     1      13.330  24.465   6.387  0.00  0.00    +0.184 C 
BRANCH  12  13
ATOM     13  N   UNL     1      14.119  23.252   6.185  0.00  0.00    +0.247 N 
ATOM     14  H   UNL     1      13.412  22.707   5.693  0.00  0.00    +0.204 HD
BRANCH  13  15
ATOM     15  C   UNL     1      14.374  22.443   7.376  0.00  0.00    +0.185 C 
BRANCH  15  16
ATOM     16  C   UNL     1      15.803  22.704   7.870  0.00  0.00    +0.086 C 
ATOM     17  O   UNL     1      16.586  21.609   7.775  0.00  0.00    -0.544 OA
ATOM     18  O   UNL     1      16.267  23.737   8.320  0.00  0.00    -0.544 OA
ENDBRANCH  15  16
ENDBRANCH  13  15
BRANCH  13  19
ATOM     19  C   UNL     1      15.110  23.201   5.112  0.00  0.00    +0.185 C 
BRANCH  19  20
ATOM     20  C   UNL     1      15.025  21.973   4.220  0.00  0.00    +0.086 C 
ATOM     21  O   UNL     1      15.926  21.018   4.531  0.00  0.00    -0.544 OA
ATOM     22  O   UNL     1      14.236  21.792   3.305  0.00  0.00    -0.544 OA
ENDBRANCH  19  20
ENDBRANCH  13  19
ENDBRANCH  12  13
ENDBRANCH   1  12
TORSDOF 11
ENDMDL
MODEL 7
REMARK VINA RESULT:      -5.0      4.494      7.062
REMARK  Name = 
REMARK  11 active torsions:
REMARK  status: ('A' for Active; 'I' for Inactive)
REMARK    1  A    between atoms: C_2  and  C_4
REMARK    2  A    between atoms: C_4  and  N_5
REMARK    3  A    between atoms: N_5  and  C_6
REMARK    4  A    between atoms: N_5  and  C_10
REMARK    5  A    between atoms: C_6  and  C_7
REMARK    6  A    between atoms: C_10  and  C_11
REMARK    7  A    between atoms: C_11  and  N_12
REMARK    8  A    between atoms: N_12  and  C_13
REMARK    9  A    between atoms: N_12  and  C_17
REMARK   10  A    between atoms: C_13  and  C_14
REMARK   11  A    between atoms: C_17  and  C_18
REMARK                            x       y       z     vdW  Elec       q    Type
REMARK                         _______ _______ _______ _____ _____    ______ ____
ROOT
ATOM      1  C   UNL     1      12.835  25.284   5.889  0.00  0.00    +0.184 C 
ENDROOT
BRANCH   1   2
ATOM      2  N   UNL     1      13.770  24.190   6.246  0.00  0.00    +0.247 N 
ATOM      3  H   UNL     1      14.712  24.467   5.969  0.00  0.00    +0.204 HD
BRANCH   2   4
ATOM      4  C   UNL     1      13.801  23.986   7.718  0.00  0.00    +0.185 C 
BRANCH   4   6
ATOM      5  O   UNL     1      14.718  22.050   8.784  0.00  0.00    -0.544 OA
ATOM      6  C   UNL     1      15.035  23.218   8.187  0.00  0.00    +0.086 C 
ATOM      7  O   UNL     1      16.207  23.531   8.038  0.00  0.00    -0.544 OA
ENDBRANCH   4   6
ENDBRANCH   2   4
BRANCH   2   8
ATOM      8  C   UNL     1      13.489  22.946   5.480  0.00  0.00    +0.185 C 
BRANCH   8   9
ATOM      9  C   UNL     1      12.183  22.222   5.820  0.00  0.00    +0.086 C 
ATOM     10  O   UNL     1      11.181  22.489   4.943  0.00  0.00    -0.544 OA
ATOM     11  O   UNL     1      12.003  21.510   6.794  0.00  0.00    -0.544 OA
ENDBRANCH   8   9
ENDBRANCH   2   8
ENDBRANCH   1   2
BRANCH   1  12
ATOM     12  C   UNL     1      12.011  25.769   7.116  0.00  0.00    +0.184 C 
BRANCH  12  13
ATOM     13  N   UNL     1      10.569  25.588   6.968  0.00  0.00    +0.247 N 
ATOM     14  H   UNL     1      10.274  26.457   7.412  0.00  0.00    +0.204 HD
BRANCH  13  15
ATOM     15  C   UNL     1       9.954  24.570   7.819  0.00  0.00    +0.185 C 
BRANCH  15  16
ATOM     16  C   UNL     1       9.397  25.236   9.083  0.00  0.00    +0.086 C 
ATOM     17  O   UNL     1       8.100  25.584   8.950  0.00  0.00    -0.544 OA
ATOM     18  O   UNL     1       9.978  25.475  10.127  0.00  0.00    -0.544 OA
ENDBRANCH  15  16
ENDBRANCH  13  15
BRANCH  13  19
ATOM     19  C   UNL     1       9.931  25.864   5.682  0.00  0.00    +0.185 C 
BRANCH  19  20
ATOM     20  C   UNL     1       9.115  27.146   5.632  0.00  0.00    +0.086 C 
ATOM     21  O   UNL     1       8.798  27.535   4.380  0.00  0.00    -0.544 OA
ATOM     22  O   UNL     1       8.732  27.801   6.590  0.00  0.00    -0.544 OA
ENDBRANCH  19  20
ENDBRANCH  13  19
ENDBRANCH  12  13
ENDBRANCH   1  12
TORSDOF 11
ENDMDL
MODEL 8
REMARK VINA RESULT:      -5.0      3.201      5.135
REMARK  Name = 
REMARK  11 active torsions:
REMARK  status: ('A' for Active; 'I' for Inactive)
REMARK    1  A    between atoms: C_2  and  C_4
REMARK    2  A    between atoms: C_4  and  N_5
REMARK    3  A    between atoms: N_5  and  C_6
REMARK    4  A    between atoms: N_5  and  C_10
REMARK    5  A    between atoms: C_6  and  C_7
REMARK    6  A    between atoms: C_10  and  C_11
REMARK    7  A    between atoms: C_11  and  N_12
REMARK    8  A    between atoms: N_12  and  C_13
REMARK    9  A    between atoms: N_12  and  C_17
REMARK   10  A    between atoms: C_13  and  C_14
REMARK   11  A    between atoms: C_17  and  C_18
REMARK                            x       y       z     vdW  Elec       q    Type
REMARK                         _______ _______ _______ _____ _____    ______ ____
ROOT
ATOM      1  C   UNL     1      13.454  24.471   6.736  0.00  0.00    +0.184 C 
ENDROOT
BRANCH   1   2
ATOM      2  N   UNL     1      14.013  23.144   6.380  0.00  0.00    +0.247 N 
ATOM      3  H   UNL     1      13.258  22.563   6.017  0.00  0.00    +0.204 HD
BRANCH   2   4
ATOM      4  C   UNL     1      15.015  23.273   5.289  0.00  0.00    +0.185 C 
BRANCH   4   6
ATOM      5  O   UNL     1      14.260  21.944   3.448  0.00  0.00    -0.544 OA
ATOM      6  C   UNL     1      15.155  22.000   4.457  0.00  0.00    +0.086 C 
ATOM      7  O   UNL     1      15.982  21.111   4.591  0.00  0.00    -0.544 OA
ENDBRANCH   4   6
ENDBRANCH   2   4
BRANCH   2   8
ATOM      8  C   UNL     1      14.524  22.418   7.574  0.00  0.00    +0.185 C 
BRANCH   8   9
ATOM      9  C   UNL     1      15.969  22.718   7.982  0.00  0.00    +0.086 C 
ATOM     10  O   UNL     1      16.797  21.652   7.837  0.00  0.00    -0.544 OA
ATOM     11  O   UNL     1      16.368  23.776   8.442  0.00  0.00    -0.544 OA
ENDBRANCH   8   9
ENDBRANCH   2   8
ENDBRANCH   1   2
BRANCH   1  12
ATOM     12  C   UNL     1      12.911  25.227   5.488  0.00  0.00    +0.184 C 
BRANCH  12  13
ATOM     13  N   UNL     1      11.515  24.929   5.178  0.00  0.00    +0.247 N 
ATOM     14  H   UNL     1      11.341  24.275   5.941  0.00  0.00    +0.204 HD
BRANCH  13  15
ATOM     15  C   UNL     1      11.278  24.106   3.993  0.00  0.00    +0.185 C 
BRANCH  15  16
ATOM     16  C   UNL     1      10.932  22.677   4.429  0.00  0.00    +0.086 C 
ATOM     17  O   UNL     1       9.940  22.141   3.688  0.00  0.00    -0.544 OA
ATOM     18  O   UNL     1      11.429  22.023   5.329  0.00  0.00    -0.544 OA
ENDBRANCH  15  16
ENDBRANCH  13  15
BRANCH  13  19
ATOM     19  C   UNL     1      10.469  25.875   5.560  0.00  0.00    +0.185 C 
BRANCH  19  20
ATOM     20  C   UNL     1       9.730  25.531   6.844  0.00  0.00    +0.086 C 
ATOM     21  O   UNL     1       8.722  26.380   7.129  0.00  0.00    -0.544 OA
ATOM     22  O   UNL     1       9.960  24.586   7.583  0.00  0.00    -0.544 OA
ENDBRANCH  19  20
ENDBRANCH  13  19
ENDBRANCH  12  13
ENDBRANCH   1  12
TORSDOF 11
ENDMDL
MODEL 9
REMARK VINA RESULT:      -5.0      3.436      6.182
REMARK  Name = 
REMARK  11 active torsions:
REMARK  status: ('A' for Active; 'I' for Inactive)
REMARK    1  A    between atoms: C_2  and  C_4
REMARK    2  A    between atoms: C_4  and  N_5
REMARK    3  A    between atoms: N_5  and  C_6
REMARK    4  A    between atoms: N_5  and  C_10
REMARK    5  A    between atoms: C_6  and  C_7
REMARK    6  A    between atoms: C_10  and  C_11
REMARK    7  A    between atoms: C_11  and  N_12
REMARK    8  A    between atoms: N_12  and  C_13
REMARK    9  A    between atoms: N_12  and  C_17
REMARK   10  A    between atoms: C_13  and  C_14
REMARK   11  A    between atoms: C_17  and  C_18
REMARK                            x       y       z     vdW  Elec       q    Type
REMARK                         _______ _______ _______ _____ _____    ______ ____
ROOT
ATOM      1  C   UNL     1      13.085  24.478   6.486  0.00  0.00    +0.184 C 
ENDROOT
BRANCH   1   2
ATOM      2  N   UNL     1      14.451  23.906   6.565  0.00  0.00    +0.247 N 
ATOM      3  H   UNL     1      15.066  24.599   6.990  0.00  0.00    +0.204 HD
BRANCH   2   4
ATOM      4  C   UNL     1      14.470  22.716   7.456  0.00  0.00    +0.185 C 
BRANCH   4   6
ATOM      5  O   UNL     1      15.688  21.608   9.192  0.00  0.00    -0.544 OA
ATOM      6  C   UNL     1      15.642  22.724   8.435  0.00  0.00    +0.086 C 
ATOM      7  O   UNL     1      16.508  23.578   8.551  0.00  0.00    -0.544 OA
ENDBRANCH   4   6
ENDBRANCH   2   4
BRANCH   2   8
ATOM      8  C   UNL     1      15.025  23.649   5.217  0.00  0.00    +0.185 C 
BRANCH   8   9
ATOM      9  C   UNL     1      14.750  22.268   4.616  0.00  0.00    +0.086 C 
ATOM     10  O   UNL     1      15.843  21.462   4.607  0.00  0.00    -0.544 OA
ATOM     11  O   UNL     1      13.688  21.905   4.137  0.00  0.00    -0.544 OA
ENDBRANCH   8   9
ENDBRANCH   2   8
ENDBRANCH   1   2
BRANCH   1  12
ATOM     12  C   UNL     1      12.895  25.355   5.214  0.00  0.00    +0.184 C 
BRANCH  12  13
ATOM     13  N   UNL     1      11.603  25.170   4.557  0.00  0.00    +0.247 N 
ATOM     14  H   UNL     1      11.490  26.120   4.206  0.00  0.00    +0.204 HD
BRANCH  13  15
ATOM     15  C   UNL     1      10.446  25.016   5.439  0.00  0.00    +0.185 C 
BRANCH  15  16
ATOM     16  C   UNL     1       9.928  26.403   5.841  0.00  0.00    +0.086 C 
ATOM     17  O   UNL     1      10.203  26.699   7.128  0.00  0.00    -0.544 OA
ATOM     18  O   UNL     1       9.322  27.208   5.156  0.00  0.00    -0.544 OA
ENDBRANCH  15  16
ENDBRANCH  13  15
BRANCH  13  19
ATOM     19  C   UNL     1      11.540  24.526   3.247  0.00  0.00    +0.185 C 
BRANCH  19  20
ATOM     20  C   UNL     1      10.196  24.633   2.544  0.00  0.00    +0.086 C 
ATOM     21  O   UNL     1       9.570  23.448   2.396  0.00  0.00    -0.544 OA
ATOM     22  O   UNL     1       9.667  25.657   2.141  0.00  0.00    -0.544 OA
ENDBRANCH  19  20
ENDBRANCH  13  19
ENDBRANCH  12  13
ENDBRANCH   1  12
TORSDOF 11
ENDMDL
