MODEL 1
REMARK VINA RESULT:      -5.2      0.000      0.000
REMARK  Name = 
REMARK  17 active torsions:
REMARK  status: ('A' for Active; 'I' for Inactive)
REMARK    1  A    between atoms: C_2  and  C_4
REMARK    2  A    between atoms: C_4  and  N_5
REMARK    3  A    between atoms: N_5  and  C_6
REMARK    4  A    between atoms: N_5  and  C_10
REMARK    5  A    between atoms: C_6  and  C_7
REMARK    6  A    between atoms: C_10  and  C_11
REMARK    7  A    between atoms: C_11  and  O_12
REMARK    8  A    between atoms: O_12  and  C_13
REMARK    9  A    between atoms: C_13  and  C_14
REMARK   10  A    between atoms: C_14  and  O_15
REMARK   11  A    between atoms: O_15  and  C_16
REMARK   12  A    between atoms: C_16  and  C_17
REMARK   13  A    between atoms: C_17  and  N_18
REMARK   14  A    between atoms: N_18  and  C_19
REMARK   15  A    between atoms: N_18  and  C_23
REMARK   16  A    between atoms: C_19  and  C_20
REMARK   17  A    between atoms: C_23  and  C_24
REMARK                            x       y       z     vdW  Elec       q    Type
REMARK                         _______ _______ _______ _____ _____    ______ ____
ROOT
ATOM      1  C   UNL     1      10.421  23.050   4.494  0.00  0.00    +0.188 C 
ENDROOT
BRANCH   1   2
ATOM      2  C   UNL     1      11.561  22.292   5.186  0.00  0.00    +0.188 C 
BRANCH   2   3
ATOM      3  O   UNL     1      12.751  23.085   5.132  0.00  0.00    -0.372 OA
BRANCH   3   4
ATOM      4  C   UNL     1      13.802  22.551   4.320  0.00  0.00    +0.210 C 
BRANCH   4   5
ATOM      5  C   UNL     1      15.221  22.694   4.910  0.00  0.00    +0.160 C 
BRANCH   5   6
ATOM      6  N   UNL     1      15.890  21.536   5.549  0.00  0.00    +0.245 N 
ATOM      7  H   UNL     1      16.886  21.732   5.451  0.00  0.00    +0.204 HD
BRANCH   6   8
ATOM      8  C   UNL     1      15.524  21.446   6.988  0.00  0.00    +0.185 C 
BRANCH   8   9
ATOM      9  C   UNL     1      15.603  22.782   7.718  0.00  0.00    +0.086 C 
ATOM     10  O   UNL     1      14.420  23.143   8.265  0.00  0.00    -0.544 OA
ATOM     11  O   UNL     1      16.606  23.449   7.921  0.00  0.00    -0.544 OA
ENDBRANCH   8   9
ENDBRANCH   6   8
BRANCH   6  12
ATOM     12  C   UNL     1      15.712  20.232   4.876  0.00  0.00    +0.185 C 
BRANCH  12  13
ATOM     13  C   UNL     1      17.041  19.607   4.454  0.00  0.00    +0.086 C 
ATOM     14  O   UNL     1      18.031  19.875   5.339  0.00  0.00    -0.544 OA
ATOM     15  O   UNL     1      17.294  18.990   3.432  0.00  0.00    -0.544 OA
ENDBRANCH  12  13
ENDBRANCH   6  12
ENDBRANCH   5   6
ENDBRANCH   4   5
ENDBRANCH   3   4
ENDBRANCH   2   3
ENDBRANCH   1   2
BRANCH   1  16
ATOM     16  O   UNL     1      10.709  24.451   4.457  0.00  0.00    -0.372 OA
BRANCH  16  17
ATOM     17  C   UNL     1       9.561  25.297   4.657  0.00  0.00    +0.210 C 
BRANCH  17  18
ATOM     18  C   UNL     1       9.672  26.161   5.928  0.00  0.00    +0.160 C 
BRANCH  18  19
ATOM     19  N   UNL     1       9.315  25.588   7.230  0.00  0.00    +0.245 N 
ATOM     20  H   UNL     1       8.596  24.907   6.986  0.00  0.00    +0.204 HD
BRANCH  19  21
ATOM     21  C   UNL     1      10.336  24.720   7.841  0.00  0.00    +0.185 C 
BRANCH  21  22
ATOM     22  C   UNL     1      11.679  25.410   8.086  0.00  0.00    +0.086 C 
ATOM     23  O   UNL     1      11.896  25.868   9.335  0.00  0.00    -0.544 OA
ATOM     24  O   UNL     1      12.560  25.537   7.247  0.00  0.00    -0.544 OA
ENDBRANCH  21  22
ENDBRANCH  19  21
BRANCH  19  25
ATOM     25  C   UNL     1       8.544  26.460   8.135  0.00  0.00    +0.185 C 
BRANCH  25  27
ATOM     26  O   UNL     1       7.999  28.678   7.468  0.00  0.00    -0.544 OA
ATOM     27  C   UNL     1       8.915  27.938   8.134  0.00  0.00    +0.086 C 
ATOM     28  O   UNL     1       9.888  28.481   8.630  0.00  0.00    -0.544 OA
ENDBRANCH  25  27
ENDBRANCH  19  25
ENDBRANCH  18  19
ENDBRANCH  17  18
ENDBRANCH  16  17
ENDBRANCH   1  16
TORSDOF 17
ENDMDL
MODEL 2
REMARK VINA RESULT:      -5.2      1.779      8.465
REMARK  Name = 
REMARK  17 active torsions:
REMARK  status: ('A' for Active; 'I' for Inactive)
REMARK    1  A    between atoms: C_2  and  C_4
REMARK    2  A    between atoms: C_4  and  N_5
REMARK    3  A    between atoms: N_5  and  C_6
REMARK    4  A    between atoms: N_5  and  C_10
REMARK    5  A    between atoms: C_6  and  C_7
REMARK    6  A    between atoms: C_10  and  C_11
REMARK    7  A    between atoms: C_11  and  O_12
REMARK    8  A    between atoms: O_12  and  C_13
REMARK    9  A    between atoms: C_13  and  C_14
REMARK   10  A    between atoms: C_14  and  O_15
REMARK   11  A    between atoms: O_15  and  C_16
REMARK   12  A    between atoms: C_16  and  C_17
REMARK   13  A    between atoms: C_17  and  N_18
REMARK   14  A    between atoms: N_18  and  C_19
REMARK   15  A    between atoms: N_18  and  C_23
REMARK   16  A    between atoms: C_19  and  C_20
REMARK   17  A    between atoms: C_23  and  C_24
REMARK                            x       y       z     vdW  Elec       q    Type
REMARK                         _______ _______ _______ _____ _____    ______ ____
ROOT
ATOM      1  C   UNL     1      15.915  23.404   8.125  0.00  0.00    +0.188 C 
ENDROOT
BRANCH   1   2
ATOM      2  C   UNL     1      14.424  23.051   8.189  0.00  0.00    +0.188 C 
BRANCH   2   3
ATOM      3  O   UNL     1      13.654  24.210   7.857  0.00  0.00    -0.372 OA
BRANCH   3   4
ATOM      4  C   UNL     1      13.153  24.245   6.516  0.00  0.00    +0.210 C 
BRANCH   4   5
ATOM      5  C   UNL     1      12.263  25.460   6.182  0.00  0.00    +0.160 C 
BRANCH   5   6
ATOM      6  N   UNL     1      10.805  25.290   5.975  0.00  0.00    +0.245 N 
ATOM      7  H   UNL     1      10.508  26.161   5.535  0.00  0.00    +0.204 HD
BRANCH   6   8
ATOM      8  C   UNL     1      10.534  24.140   5.072  0.00  0.00    +0.185 C 
BRANCH   8   9
ATOM      9  C   UNL     1      10.706  24.475   3.595  0.00  0.00    +0.086 C 
ATOM     10  O   UNL     1      11.666  23.728   3.004  0.00  0.00    -0.544 OA
ATOM     11  O   UNL     1      10.020  25.236   2.931  0.00  0.00    -0.544 OA
ENDBRANCH   8   9
ENDBRANCH   6   8
BRANCH   6  12
ATOM     12  C   UNL     1       9.982  25.207   7.200  0.00  0.00    +0.185 C 
BRANCH  12  13
ATOM     13  C   UNL     1      10.357  26.271   8.229  0.00  0.00    +0.086 C 
ATOM     14  O   UNL     1      10.923  25.730   9.335  0.00  0.00    -0.544 OA
ATOM     15  O   UNL     1      10.149  27.473   8.183  0.00  0.00    -0.544 OA
ENDBRANCH  12  13
ENDBRANCH   6  12
ENDBRANCH   5   6
ENDBRANCH   4   5
ENDBRANCH   3   4
ENDBRANCH   2   3
ENDBRANCH   1   2
BRANCH   1  16
ATOM     16  O   UNL     1      16.698  22.216   7.971  0.00  0.00    -0.372 OA
BRANCH  16  17
ATOM     17  C   UNL     1      15.925  21.022   7.747  0.00  0.00    +0.210 C 
BRANCH  17  18
ATOM     18  C   UNL     1      16.505  20.137   6.628  0.00  0.00    +0.160 C 
BRANCH  18  19
ATOM     19  N   UNL     1      15.677  19.797   5.466  0.00  0.00    +0.245 N 
ATOM     20  H   UNL     1      15.212  18.940   5.765  0.00  0.00    +0.204 HD
BRANCH  19  21
ATOM     21  C   UNL     1      14.522  20.682   5.232  0.00  0.00    +0.185 C 
BRANCH  21  22
ATOM     22  C   UNL     1      14.731  21.699   4.108  0.00  0.00    +0.086 C 
ATOM     23  O   UNL     1      15.519  22.753   4.397  0.00  0.00    -0.544 OA
ATOM     24  O   UNL     1      14.266  21.596   2.981  0.00  0.00    -0.544 OA
ENDBRANCH  21  22
ENDBRANCH  19  21
BRANCH  19  25
ATOM     25  C   UNL     1      16.395  19.298   4.279  0.00  0.00    +0.185 C 
BRANCH  25  27
ATOM     26  O   UNL     1      15.191  17.273   4.606  0.00  0.00    -0.544 OA
ATOM     27  C   UNL     1      15.912  17.974   3.701  0.00  0.00    +0.086 C 
ATOM     28  O   UNL     1      16.102  17.512   2.589  0.00  0.00    -0.544 OA
ENDBRANCH  25  27
ENDBRANCH  19  25
ENDBRANCH  18  19
ENDBRANCH  17  18
ENDBRANCH  16  17
ENDBRANCH   1  16
TORSDOF 17
ENDMDL
MODEL 3
REMARK VINA RESULT:      -5.2      2.061      7.768
REMARK  Name = 
REMARK  17 active torsions:
REMARK  status: ('A' for Active; 'I' for Inactive)
REMARK    1  A    between atoms: C_2  and  C_4
REMARK    2  A    between atoms: C_4  and  N_5
REMARK    3  A    between atoms: N_5  and  C_6
REMARK    4  A    between atoms: N_5  and  C_10
REMARK    5  A    between atoms: C_6  and  C_7
REMARK    6  A    between atoms: C_10  and  C_11
REMARK    7  A    between atoms: C_11  and  O_12
REMARK    8  A    between atoms: O_12  and  C_13
REMARK    9  A    between atoms: C_13  and  C_14
REMARK   10  A    between atoms: C_14  and  O_15
REMARK   11  A    between atoms: O_15  and  C_16
REMARK   12  A    between atoms: C_16  and  C_17
REMARK   13  A    between atoms: C_17  and  N_18
REMARK   14  A    between atoms: N_18  and  C_19
REMARK   15  A    between atoms: N_18  and  C_23
REMARK   16  A    between atoms: C_19  and  C_20
REMARK   17  A    between atoms: C_23  and  C_24
REMARK                            x       y       z     vdW  Elec       q    Type
REMARK                         _______ _______ _______ _____ _____    ______ ____
ROOT
ATOM      1  C   UNL     1      10.679  24.170   2.352  0.00  0.00    +0.188 C 
ENDROOT
BRANCH   1   2
ATOM      2  C   UNL     1       9.502  25.146   2.225  0.00  0.00    +0.188 C 
BRANCH   2   3
ATOM      3  O   UNL     1       8.335  24.549   2.799  0.00  0.00    -0.372 OA
BRANCH   3   4
ATOM      4  C   UNL     1       7.761  25.268   3.896  0.00  0.00    +0.210 C 
BRANCH   4   5
ATOM      5  C   UNL     1       8.658  26.372   4.495  0.00  0.00    +0.160 C 
BRANCH   5   6
ATOM      6  N   UNL     1       8.623  26.663   5.947  0.00  0.00    +0.245 N 
ATOM      7  H   UNL     1       8.156  25.854   6.358  0.00  0.00    +0.204 HD
BRANCH   6   8
ATOM      8  C   UNL     1      10.002  26.789   6.490  0.00  0.00    +0.185 C 
BRANCH   8   9
ATOM      9  C   UNL     1      10.319  25.776   7.584  0.00  0.00    +0.086 C 
ATOM     10  O   UNL     1      11.554  25.949   8.107  0.00  0.00    -0.544 OA
ATOM     11  O   UNL     1       9.557  24.948   8.060  0.00  0.00    -0.544 OA
ENDBRANCH   8   9
ENDBRANCH   6   8
BRANCH   6  12
ATOM     12  C   UNL     1       7.786  27.809   6.359  0.00  0.00    +0.185 C 
BRANCH  12  13
ATOM     13  C   UNL     1       6.915  27.490   7.573  0.00  0.00    +0.086 C 
ATOM     14  O   UNL     1       7.523  27.826   8.736  0.00  0.00    -0.544 OA
ATOM     15  O   UNL     1       5.828  26.936   7.597  0.00  0.00    -0.544 OA
ENDBRANCH  12  13
ENDBRANCH   6  12
ENDBRANCH   5   6
ENDBRANCH   4   5
ENDBRANCH   3   4
ENDBRANCH   2   3
ENDBRANCH   1   2
BRANCH   1  16
ATOM     16  O   UNL     1      11.801  24.824   2.953  0.00  0.00    -0.372 OA
BRANCH  16  17
ATOM     17  C   UNL     1      11.980  24.528   4.351  0.00  0.00    +0.210 C 
BRANCH  17  18
ATOM     18  C   UNL     1      13.285  25.115   4.922  0.00  0.00    +0.160 C 
BRANCH  18  19
ATOM     19  N   UNL     1      14.195  24.257   5.686  0.00  0.00    +0.245 N 
ATOM     20  H   UNL     1      14.717  24.928   6.250  0.00  0.00    +0.204 HD
BRANCH  19  21
ATOM     21  C   UNL     1      13.561  23.437   6.734  0.00  0.00    +0.185 C 
BRANCH  21  22
ATOM     22  C   UNL     1      14.517  22.991   7.842  0.00  0.00    +0.086 C 
ATOM     23  O   UNL     1      14.434  21.699   8.217  0.00  0.00    -0.544 OA
ATOM     24  O   UNL     1      15.354  23.709   8.371  0.00  0.00    -0.544 OA
ENDBRANCH  21  22
ENDBRANCH  19  21
BRANCH  19  25
ATOM     25  C   UNL     1      15.302  23.644   4.929  0.00  0.00    +0.185 C 
BRANCH  25  27
ATOM     26  O   UNL     1      15.829  21.324   4.962  0.00  0.00    -0.544 OA
ATOM     27  C   UNL     1      15.048  22.252   4.363  0.00  0.00    +0.086 C 
ATOM     28  O   UNL     1      14.275  21.916   3.482  0.00  0.00    -0.544 OA
ENDBRANCH  25  27
ENDBRANCH  19  25
ENDBRANCH  18  19
ENDBRANCH  17  18
ENDBRANCH  16  17
ENDBRANCH   1  16
TORSDOF 17
ENDMDL
MODEL 4
REMARK VINA RESULT:      -5.1      2.079      4.135
REMARK  Name = 
REMARK  17 active torsions:
REMARK  status: ('A' for Active; 'I' for Inactive)
REMARK    1  A    between atoms: C_2  and  C_4
REMARK    2  A    between atoms: C_4  and  N_5
REMARK    3  A    between atoms: N_5  and  C_6
REMARK    4  A    between atoms: N_5  and  C_10
REMARK    5  A    between atoms: C_6  and  C_7
REMARK    6  A    between atoms: C_10  and  C_11
REMARK    7  A    between atoms: C_11  and  O_12
REMARK    8  A    between atoms: O_12  and  C_13
REMARK    9  A    between atoms: C_13  and  C_14
REMARK   10  A    between atoms: C_14  and  O_15
REMARK   11  A    between atoms: O_15  and  C_16
REMARK   12  A    between atoms: C_16  and  C_17
REMARK   13  A    between atoms: C_17  and  N_18
REMARK   14  A    between atoms: N_18  and  C_19
REMARK   15  A    between atoms: N_18  and  C_23
REMARK   16  A    between atoms: C_19  and  C_20
REMARK   17  A    between atoms: C_23  and  C_24
REMARK                            x       y       z     vdW  Elec       q    Type
REMARK                         _______ _______ _______ _____ _____    ______ ____
ROOT
ATOM      1  C   UNL     1      15.220  23.366   6.498  0.00  0.00    +0.188 C 
ENDROOT
BRANCH   1   2
ATOM      2  C   UNL     1      15.030  23.732   5.021  0.00  0.00    +0.188 C 
BRANCH   2   3
ATOM      3  O   UNL     1      15.383  22.607   4.210  0.00  0.00    -0.372 OA
BRANCH   3   4
ATOM      4  C   UNL     1      14.319  21.684   3.954  0.00  0.00    +0.210 C 
BRANCH   4   5
ATOM      5  C   UNL     1      14.671  20.534   2.986  0.00  0.00    +0.160 C 
BRANCH   5   6
ATOM      6  N   UNL     1      15.583  19.446   3.411  0.00  0.00    +0.245 N 
ATOM      7  H   UNL     1      16.517  19.810   3.226  0.00  0.00    +0.204 HD
BRANCH   6   8
ATOM      8  C   UNL     1      15.420  19.161   4.862  0.00  0.00    +0.185 C 
BRANCH   8   9
ATOM      9  C   UNL     1      16.579  19.668   5.712  0.00  0.00    +0.086 C 
ATOM     10  O   UNL     1      16.182  20.069   6.941  0.00  0.00    -0.544 OA
ATOM     11  O   UNL     1      17.766  19.643   5.425  0.00  0.00    -0.544 OA
ENDBRANCH   8   9
ENDBRANCH   6   8
BRANCH   6  12
ATOM     12  C   UNL     1      15.519  18.200   2.618  0.00  0.00    +0.185 C 
BRANCH  12  13
ATOM     13  C   UNL     1      16.882  17.792   2.061  0.00  0.00    +0.086 C 
ATOM     14  O   UNL     1      17.843  18.699   2.359  0.00  0.00    -0.544 OA
ATOM     15  O   UNL     1      17.155  16.829   1.363  0.00  0.00    -0.544 OA
ENDBRANCH  12  13
ENDBRANCH   6  12
ENDBRANCH   5   6
ENDBRANCH   4   5
ENDBRANCH   3   4
ENDBRANCH   2   3
ENDBRANCH   1   2
BRANCH   1  16
ATOM     16  O   UNL     1      13.959  23.047   7.095  0.00  0.00    -0.372 OA
BRANCH  16  17
ATOM     17  C   UNL     1      12.925  24.019   6.849  0.00  0.00    +0.210 C 
BRANCH  17  18
ATOM     18  C   UNL     1      11.617  23.383   6.342  0.00  0.00    +0.160 C 
BRANCH  18  19
ATOM     19  N   UNL     1      10.622  24.214   5.657  0.00  0.00    +0.245 N 
ATOM     20  H   UNL     1       9.819  24.165   6.284  0.00  0.00    +0.204 HD
BRANCH  19  21
ATOM     21  C   UNL     1      10.897  25.662   5.659  0.00  0.00    +0.185 C 
BRANCH  21  22
ATOM     22  C   UNL     1       9.669  26.531   5.936  0.00  0.00    +0.086 C 
ATOM     23  O   UNL     1       9.095  26.384   7.147  0.00  0.00    -0.544 OA
ATOM     24  O   UNL     1       9.209  27.355   5.157  0.00  0.00    -0.544 OA
ENDBRANCH  21  22
ENDBRANCH  19  21
BRANCH  19  25
ATOM     25  C   UNL     1      10.028  23.643   4.435  0.00  0.00    +0.185 C 
BRANCH  25  27
ATOM     26  O   UNL     1      11.686  23.767   2.734  0.00  0.00    -0.544 OA
ATOM     27  C   UNL     1      10.480  24.249   3.113  0.00  0.00    +0.086 C 
ATOM     28  O   UNL     1       9.911  25.072   2.416  0.00  0.00    -0.544 OA
ENDBRANCH  25  27
ENDBRANCH  19  25
ENDBRANCH  18  19
ENDBRANCH  17  18
ENDBRANCH  16  17
ENDBRANCH   1  16
TORSDOF 17
ENDMDL
MODEL 5
REMARK VINA RESULT:      -5.1      1.528      6.949
REMARK  Name = 
REMARK  17 active torsions:
REMARK  status: ('A' for Active; 'I' for Inactive)
REMARK    1  A    between atoms: C_2  and  C_4
REMARK    2  A    between atoms: C_4  and  N_5
REMARK    3  A    between atoms: N_5  and  C_6
REMARK    4  A    between atoms: N_5  and  C_10
REMARK    5  A    between atoms: C_6  and  C_7
REMARK    6  A    between atoms: C_10  and  C_11
REMARK    7  A    between atoms: C_11  and  O_12
REMARK    8  A    between atoms: O_12  and  C_13
REMARK    9  A    between atoms: C_13  and  C_14
REMARK   10  A    between atoms: C_14  and  O_15
REMARK   11  A    between atoms: O_15  and  C_16
REMARK   12  A    between atoms: C_16  and  C_17
REMARK   13  A    between atoms: C_17  and  N_18
REMARK   14  A    between atoms: N_18  and  C_19
REMARK   15  A    between atoms: N_18  and  C_23
REMARK   16  A    between atoms: C_19  and  C_20
REMARK   17  A    between atoms: C_23  and  C_24
REMARK                            x       y       z     vdW  Elec       q    Type
REMARK                         _______ _______ _______ _____ _____    ______ ____
ROOT
ATOM      1  C   UNL     1      10.990  23.077   3.229  0.00  0.00    +0.188 C 
ENDROOT
BRANCH   1   2
ATOM      2  C   UNL     1      11.233  24.478   2.652  0.00  0.00    +0.188 C 
BRANCH   2   3
ATOM      3  O   UNL     1      10.032  25.247   2.768  0.00  0.00    -0.372 OA
BRANCH   3   4
ATOM      4  C   UNL     1       9.381  25.169   4.041  0.00  0.00    +0.210 C 
BRANCH   4   5
ATOM      5  C   UNL     1       9.431  26.463   4.881  0.00  0.00    +0.160 C 
BRANCH   5   6
ATOM      6  N   UNL     1      10.010  26.452   6.245  0.00  0.00    +0.245 N 
ATOM      7  H   UNL     1      10.739  27.165   6.218  0.00  0.00    +0.204 HD
BRANCH   6   8
ATOM      8  C   UNL     1       8.980  26.808   7.256  0.00  0.00    +0.185 C 
BRANCH   8   9
ATOM      9  C   UNL     1       9.560  27.114   8.632  0.00  0.00    +0.086 C 
ATOM     10  O   UNL     1      10.007  28.386   8.733  0.00  0.00    -0.544 OA
ATOM     11  O   UNL     1       9.556  26.381   9.609  0.00  0.00    -0.544 OA
ENDBRANCH   8   9
ENDBRANCH   6   8
BRANCH   6  12
ATOM     12  C   UNL     1      10.729  25.220   6.634  0.00  0.00    +0.185 C 
BRANCH  12  13
ATOM     13  C   UNL     1      12.214  25.467   6.894  0.00  0.00    +0.086 C 
ATOM     14  O   UNL     1      12.947  25.385   5.758  0.00  0.00    -0.544 OA
ATOM     15  O   UNL     1      12.773  25.652   7.963  0.00  0.00    -0.544 OA
ENDBRANCH  12  13
ENDBRANCH   6  12
ENDBRANCH   5   6
ENDBRANCH   4   5
ENDBRANCH   3   4
ENDBRANCH   2   3
ENDBRANCH   1   2
BRANCH   1  16
ATOM     16  O   UNL     1      12.103  22.674   4.033  0.00  0.00    -0.372 OA
BRANCH  16  17
ATOM     17  C   UNL     1      11.741  22.135   5.318  0.00  0.00    +0.210 C 
BRANCH  17  18
ATOM     18  C   UNL     1      12.940  21.524   6.067  0.00  0.00    +0.160 C 
BRANCH  18  19
ATOM     19  N   UNL     1      14.045  22.386   6.498  0.00  0.00    +0.245 N 
ATOM     20  H   UNL     1      13.621  23.314   6.492  0.00  0.00    +0.204 HD
BRANCH  19  21
ATOM     21  C   UNL     1      14.433  22.259   7.914  0.00  0.00    +0.185 C 
BRANCH  21  22
ATOM     22  C   UNL     1      15.867  22.701   8.211  0.00  0.00    +0.086 C 
ATOM     23  O   UNL     1      16.789  21.722   8.295  0.00  0.00    -0.544 OA
ATOM     24  O   UNL     1      16.224  23.865   8.339  0.00  0.00    -0.544 OA
ENDBRANCH  21  22
ENDBRANCH  19  21
BRANCH  19  25
ATOM     25  C   UNL     1      15.127  22.594   5.518  0.00  0.00    +0.185 C 
BRANCH  25  27
ATOM     26  O   UNL     1      15.125  21.264   3.547  0.00  0.00    -0.544 OA
ATOM     27  C   UNL     1      15.636  21.354   4.796  0.00  0.00    +0.086 C 
ATOM     28  O   UNL     1      16.397  20.492   5.202  0.00  0.00    -0.544 OA
ENDBRANCH  25  27
ENDBRANCH  19  25
ENDBRANCH  18  19
ENDBRANCH  17  18
ENDBRANCH  16  17
ENDBRANCH   1  16
TORSDOF 17
ENDMDL
MODEL 6
REMARK VINA RESULT:      -5.1      1.260      3.050
REMARK  Name = 
REMARK  17 active torsions:
REMARK  status: ('A' for Active; 'I' for Inactive)
REMARK    1  A    between atoms: C_2  and  C_4
REMARK    2  A    between atoms: C_4  and  N_5
REMARK    3  A    between atoms: N_5  and  C_6
REMARK    4  A    between atoms: N_5  and  C_10
REMARK    5  A    between atoms: C_6  and  C_7
REMARK    6  A    between atoms: C_10  and  C_11
REMARK    7  A    between atoms: C_11  and  O_12
REMARK    8  A    between atoms: O_12  and  C_13
REMARK    9  A    between atoms: C_13  and  C_14
REMARK   10  A    between atoms: C_14  and  O_15
REMARK   11  A    between atoms: O_15  and  C_16
REMARK   12  A    between atoms: C_16  and  C_17
REMARK   13  A    between atoms: C_17  and  N_18
REMARK   14  A    between atoms: N_18  and  C_19
REMARK   15  A    between atoms: N_18  and  C_23
REMARK   16  A    between atoms: C_19  and  C_20
REMARK   17  A    between atoms: C_23  and  C_24
REMARK                            x       y       z     vdW  Elec       q    Type
REMARK                         _______ _______ _______ _____ _____    ______ ____
ROOT
ATOM      1  C   UNL     1      10.122  23.908   2.992  0.00  0.00    +0.188 C 
ENDROOT
BRANCH   1   2
ATOM      2  C   UNL     1      11.290  23.009   3.418  0.00  0.00    +0.188 C 
BRANCH   2   3
ATOM      3  O   UNL     1      10.958  22.363   4.650  0.00  0.00    -0.372 OA
BRANCH   3   4
ATOM      4  C   UNL     1      12.076  22.026   5.480  0.00  0.00    +0.210 C 
BRANCH   4   5
ATOM      5  C   UNL     1      13.459  22.209   4.820  0.00  0.00    +0.160 C 
BRANCH   5   6
ATOM      6  N   UNL     1      14.698  21.923   5.579  0.00  0.00    +0.245 N 
ATOM      7  H   UNL     1      14.389  21.350   6.365  0.00  0.00    +0.204 HD
BRANCH   6   8
ATOM      8  C   UNL     1      15.665  21.166   4.740  0.00  0.00    +0.185 C 
BRANCH   8   9
ATOM      9  C   UNL     1      15.170  19.778   4.349  0.00  0.00    +0.086 C 
ATOM     10  O   UNL     1      15.270  19.550   3.019  0.00  0.00    -0.544 OA
ATOM     11  O   UNL     1      14.816  18.885   5.103  0.00  0.00    -0.544 OA
ENDBRANCH   8   9
ENDBRANCH   6   8
BRANCH   6  12
ATOM     12  C   UNL     1      15.350  23.086   6.217  0.00  0.00    +0.185 C 
BRANCH  12  13
ATOM     13  C   UNL     1      15.279  23.031   7.742  0.00  0.00    +0.086 C 
ATOM     14  O   UNL     1      16.216  22.203   8.264  0.00  0.00    -0.544 OA
ATOM     15  O   UNL     1      14.472  23.572   8.480  0.00  0.00    -0.544 OA
ENDBRANCH  12  13
ENDBRANCH   6  12
ENDBRANCH   5   6
ENDBRANCH   4   5
ENDBRANCH   3   4
ENDBRANCH   2   3
ENDBRANCH   1   2
BRANCH   1  16
ATOM     16  O   UNL     1      10.163  25.145   3.711  0.00  0.00    -0.372 OA
BRANCH  16  17
ATOM     17  C   UNL     1       8.958  25.446   4.441  0.00  0.00    +0.210 C 
BRANCH  17  18
ATOM     18  C   UNL     1       9.223  26.270   5.714  0.00  0.00    +0.160 C 
BRANCH  18  19
ATOM     19  N   UNL     1       9.208  25.610   7.024  0.00  0.00    +0.245 N 
ATOM     20  H   UNL     1       8.444  24.940   6.929  0.00  0.00    +0.204 HD
BRANCH  19  21
ATOM     21  C   UNL     1      10.344  24.712   7.294  0.00  0.00    +0.185 C 
BRANCH  21  22
ATOM     22  C   UNL     1      11.712  25.392   7.214  0.00  0.00    +0.086 C 
ATOM     23  O   UNL     1      12.157  25.971   8.346  0.00  0.00    -0.544 OA
ATOM     24  O   UNL     1      12.423  25.410   6.218  0.00  0.00    -0.544 OA
ENDBRANCH  21  22
ENDBRANCH  19  21
BRANCH  19  25
ATOM     25  C   UNL     1       8.703  26.415   8.152  0.00  0.00    +0.185 C 
BRANCH  25  27
ATOM     26  O   UNL     1       9.984  28.356   8.649  0.00  0.00    -0.544 OA
ATOM     27  C   UNL     1       8.860  27.925   8.032  0.00  0.00    +0.086 C 
ATOM     28  O   UNL     1       8.124  28.728   7.484  0.00  0.00    -0.544 OA
ENDBRANCH  25  27
ENDBRANCH  19  25
ENDBRANCH  18  19
ENDBRANCH  17  18
ENDBRANCH  16  17
ENDBRANCH   1  16
TORSDOF 17
ENDMDL
MODEL 7
REMARK VINA RESULT:      -5.1      2.259      7.451
REMARK  Name = 
REMARK  17 active torsions:
REMARK  status: ('A' for Active; 'I' for Inactive)
REMARK    1  A    between atoms: C_2  and  C_4
REMARK    2  A    between atoms: C_4  and  N_5
REMARK    3  A    between atoms: N_5  and  C_6
REMARK    4  A    between atoms: N_5  and  C_10
REMARK    5  A    between atoms: C_6  and  C_7
REMARK    6  A    between atoms: C_10  and  C_11
REMARK    7  A    between atoms: C_11  and  O_12
REMARK    8  A    between atoms: O_12  and  C_13
REMARK    9  A    between atoms: C_13  and  C_14
REMARK   10  A    between atoms: C_14  and  O_15
REMARK   11  A    between atoms: O_15  and  C_16
REMARK   12  A    between atoms: C_16  and  C_17
REMARK   13  A    between atoms: C_17  and  N_18
REMARK   14  A    between atoms: N_18  and  C_19
REMARK   15  A    between atoms: N_18  and  C_23
REMARK   16  A    between atoms: C_19  and  C_20
REMARK   17  A    between atoms: C_23  and  C_24
REMARK                            x       y       z     vdW  Elec       q    Type
REMARK                         _______ _______ _______ _____ _____    ______ ____
ROOT
ATOM      1  C   UNL     1      12.486  25.248   6.967  0.00  0.00    +0.188 C 
ENDROOT
BRANCH   1   2
ATOM      2  C   UNL     1      11.272  25.976   7.560  0.00  0.00    +0.188 C 
BRANCH   2   3
ATOM      3  O   UNL     1      10.079  25.462   6.960  0.00  0.00    -0.372 OA
BRANCH   3   4
ATOM      4  C   UNL     1       9.363  26.390   6.138  0.00  0.00    +0.210 C 
BRANCH   4   5
ATOM      5  C   UNL     1       8.930  25.845   4.761  0.00  0.00    +0.160 C 
BRANCH   5   6
ATOM      6  N   UNL     1       9.763  24.844   4.053  0.00  0.00    +0.245 N 
ATOM      7  H   UNL     1      10.681  24.921   4.491  0.00  0.00    +0.204 HD
BRANCH   6   8
ATOM      8  C   UNL     1       9.216  23.474   4.247  0.00  0.00    +0.185 C 
BRANCH   8   9
ATOM      9  C   UNL     1      10.172  22.372   3.806  0.00  0.00    +0.086 C 
ATOM     10  O   UNL     1       9.662  21.616   2.807  0.00  0.00    -0.544 OA
ATOM     11  O   UNL     1      11.319  22.199   4.187  0.00  0.00    -0.544 OA
ENDBRANCH   8   9
ENDBRANCH   6   8
BRANCH   6  12
ATOM     12  C   UNL     1      10.023  25.111   2.623  0.00  0.00    +0.185 C 
BRANCH  12  13
ATOM     13  C   UNL     1       8.828  25.757   1.923  0.00  0.00    +0.086 C 
ATOM     14  O   UNL     1       9.063  27.054   1.611  0.00  0.00    -0.544 OA
ATOM     15  O   UNL     1       7.732  25.269   1.696  0.00  0.00    -0.544 OA
ENDBRANCH  12  13
ENDBRANCH   6  12
ENDBRANCH   5   6
ENDBRANCH   4   5
ENDBRANCH   3   4
ENDBRANCH   2   3
ENDBRANCH   1   2
BRANCH   1  16
ATOM     16  O   UNL     1      12.304  25.047   5.562  0.00  0.00    -0.372 OA
BRANCH  16  17
ATOM     17  C   UNL     1      13.531  24.921   4.819  0.00  0.00    +0.210 C 
BRANCH  17  18
ATOM     18  C   UNL     1      14.545  23.979   5.496  0.00  0.00    +0.160 C 
BRANCH  18  19
ATOM     19  N   UNL     1      14.379  22.527   5.377  0.00  0.00    +0.245 N 
ATOM     20  H   UNL     1      13.576  22.443   4.754  0.00  0.00    +0.204 HD
BRANCH  19  21
ATOM     21  C   UNL     1      15.419  21.833   4.597  0.00  0.00    +0.185 C 
BRANCH  21  22
ATOM     22  C   UNL     1      14.949  20.527   3.952  0.00  0.00    +0.086 C 
ATOM     23  O   UNL     1      14.476  20.619   2.694  0.00  0.00    -0.544 OA
ATOM     24  O   UNL     1      15.009  19.427   4.485  0.00  0.00    -0.544 OA
ENDBRANCH  21  22
ENDBRANCH  19  21
BRANCH  19  25
ATOM     25  C   UNL     1      13.854  21.833   6.567  0.00  0.00    +0.185 C 
BRANCH  25  27
ATOM     26  O   UNL     1      15.621  20.949   7.891  0.00  0.00    -0.544 OA
ATOM     27  C   UNL     1      14.693  21.931   7.835  0.00  0.00    +0.086 C 
ATOM     28  O   UNL     1      14.612  22.741   8.743  0.00  0.00    -0.544 OA
ENDBRANCH  25  27
ENDBRANCH  19  25
ENDBRANCH  18  19
ENDBRANCH  17  18
ENDBRANCH  16  17
ENDBRANCH   1  16
TORSDOF 17
ENDMDL
MODEL 8
REMARK VINA RESULT:      -5.1      1.864      8.252
REMARK  Name = 
REMARK  17 active torsions:
REMARK  status: ('A' for Active; 'I' for Inactive)
REMARK    1  A    between atoms: C_2  and  C_4
REMARK    2  A    between atoms: C_4  and  N_5
REMARK    3  A    between atoms: N_5  and  C_6
REMARK    4  A    between atoms: N_5  and  C_10
REMARK    5  A    between atoms: C_6  and  C_7
REMARK    6  A    between atoms: C_10  and  C_11
REMARK    7  A    between atoms: C_11  and  O_12
REMARK    8  A    between atoms: O_12  and  C_13
REMARK    9  A    between atoms: C_13  and  C_14
REMARK   10  A    between atoms: C_14  and  O_15
REMARK   11  A    between atoms: O_15  and  C_16
REMARK   12  A    between atoms: C_16  and  C_17
REMARK   13  A    between atoms: C_17  and  N_18
REMARK   14  A    between atoms: N_18  and  C_19
REMARK   15  A    between atoms: N_18  and  C_23
REMARK   16  A    between atoms: C_19  and  C_20
REMARK   17  A    between atoms: C_23  and  C_24
REMARK                            x       y       z     vdW  Elec       q    Type
REMARK                         _______ _______ _______ _____ _____    ______ ____
ROOT
ATOM      1  C   UNL     1      14.982  23.064   8.399  0.00  0.00    +0.188 C 
ENDROOT
BRANCH   1   2
ATOM      2  C   UNL     1      13.623  23.488   7.829  0.00  0.00    +0.188 C 
BRANCH   2   3
ATOM      3  O   UNL     1      13.421  24.881   8.087  0.00  0.00    -0.372 OA
BRANCH   3   4
ATOM      4  C   UNL     1      12.371  25.494   7.330  0.00  0.00    +0.210 C 
BRANCH   4   5
ATOM      5  C   UNL     1      12.546  25.428   5.798  0.00  0.00    +0.160 C 
BRANCH   5   6
ATOM      6  N   UNL     1      11.369  25.528   4.902  0.00  0.00    +0.245 N 
ATOM      7  H   UNL     1      11.439  26.459   4.493  0.00  0.00    +0.204 HD
BRANCH   6   8
ATOM      8  C   UNL     1      11.432  24.492   3.837  0.00  0.00    +0.185 C 
BRANCH   8   9
ATOM      9  C   UNL     1      10.262  24.554   2.862  0.00  0.00    +0.086 C 
ATOM     10  O   UNL     1       9.524  23.421   2.867  0.00  0.00    -0.544 OA
ATOM     11  O   UNL     1       9.907  25.519   2.203  0.00  0.00    -0.544 OA
ENDBRANCH   8   9
ENDBRANCH   6   8
BRANCH   6  12
ATOM     12  C   UNL     1      10.048  25.525   5.565  0.00  0.00    +0.185 C 
BRANCH  12  13
ATOM     13  C   UNL     1       9.411  26.913   5.602  0.00  0.00    +0.086 C 
ATOM     14  O   UNL     1       9.430  27.447   6.847  0.00  0.00    -0.544 OA
ATOM     15  O   UNL     1       8.863  27.516   4.694  0.00  0.00    -0.544 OA
ENDBRANCH  12  13
ENDBRANCH   6  12
ENDBRANCH   5   6
ENDBRANCH   4   5
ENDBRANCH   3   4
ENDBRANCH   2   3
ENDBRANCH   1   2
BRANCH   1  16
ATOM     16  O   UNL     1      15.208  21.672   8.153  0.00  0.00    -0.372 OA
BRANCH  16  17
ATOM     17  C   UNL     1      16.467  21.380   7.517  0.00  0.00    +0.210 C 
BRANCH  17  18
ATOM     18  C   UNL     1      16.386  20.176   6.560  0.00  0.00    +0.160 C 
BRANCH  18  19
ATOM     19  N   UNL     1      16.107  20.395   5.138  0.00  0.00    +0.245 N 
ATOM     20  H   UNL     1      17.039  20.516   4.741  0.00  0.00    +0.204 HD
BRANCH  19  21
ATOM     21  C   UNL     1      15.633  19.212   4.396  0.00  0.00    +0.185 C 
BRANCH  21  22
ATOM     22  C   UNL     1      16.288  19.031   3.025  0.00  0.00    +0.086 C 
ATOM     23  O   UNL     1      15.483  19.184   1.955  0.00  0.00    -0.544 OA
ATOM     24  O   UNL     1      17.475  18.797   2.846  0.00  0.00    -0.544 OA
ENDBRANCH  21  22
ENDBRANCH  19  21
BRANCH  19  25
ATOM     25  C   UNL     1      15.508  21.695   4.785  0.00  0.00    +0.185 C 
BRANCH  25  27
ATOM     26  O   UNL     1      13.778  21.878   3.162  0.00  0.00    -0.544 OA
ATOM     27  C   UNL     1      14.015  21.695   4.481  0.00  0.00    +0.086 C 
ATOM     28  O   UNL     1      13.079  21.565   5.251  0.00  0.00    -0.544 OA
ENDBRANCH  25  27
ENDBRANCH  19  25
ENDBRANCH  18  19
ENDBRANCH  17  18
ENDBRANCH  16  17
ENDBRANCH   1  16
TORSDOF 17
ENDMDL
MODEL 9
REMARK VINA RESULT:      -5.1      2.117      4.078
REMARK  Name = 
REMARK  17 active torsions:
REMARK  status: ('A' for Active; 'I' for Inactive)
REMARK    1  A    between atoms: C_2  and  C_4
REMARK    2  A    between atoms: C_4  and  N_5
REMARK    3  A    between atoms: N_5  and  C_6
REMARK    4  A    between atoms: N_5  and  C_10
REMARK    5  A    between atoms: C_6  and  C_7
REMARK    6  A    between atoms: C_10  and  C_11
REMARK    7  A    between atoms: C_11  and  O_12
REMARK    8  A    between atoms: O_12  and  C_13
REMARK    9  A    between atoms: C_13  and  C_14
REMARK   10  A    between atoms: C_14  and  O_15
REMARK   11  A    between atoms: O_15  and  C_16
REMARK   12  A    between atoms: C_16  and  C_17
REMARK   13  A    between atoms: C_17  and  N_18
REMARK   14  A    between atoms: N_18  and  C_19
REMARK   15  A    between atoms: N_18  and  C_23
REMARK   16  A    between atoms: C_19  and  C_20
REMARK   17  A    between atoms: C_23  and  C_24
REMARK                            x       y       z     vdW  Elec       q    Type
REMARK                         _______ _______ _______ _____ _____    ______ ____
ROOT
ATOM      1  C   UNL     1      15.141  23.185   6.529  0.00  0.00    +0.188 C 
ENDROOT
BRANCH   1   2
ATOM      2  C   UNL     1      15.048  23.672   5.078  0.00  0.00    +0.188 C 
BRANCH   2   3
ATOM      3  O   UNL     1      15.445  22.613   4.202  0.00  0.00    -0.372 OA
BRANCH   3   4
ATOM      4  C   UNL     1      14.375  21.808   3.697  0.00  0.00    +0.210 C 
BRANCH   4   5
ATOM      5  C   UNL     1      14.813  20.587   2.861  0.00  0.00    +0.160 C 
BRANCH   5   6
ATOM      6  N   UNL     1      15.645  19.521   3.467  0.00  0.00    +0.245 N 
ATOM      7  H   UNL     1      16.601  19.869   3.390  0.00  0.00    +0.204 HD
BRANCH   6   8
ATOM      8  C   UNL     1      15.285  19.322   4.896  0.00  0.00    +0.185 C 
BRANCH   8   9
ATOM      9  C   UNL     1      16.388  19.738   5.863  0.00  0.00    +0.086 C 
ATOM     10  O   UNL     1      17.571  19.945   5.240  0.00  0.00    -0.544 OA
ATOM     11  O   UNL     1      16.266  19.983   7.054  0.00  0.00    -0.544 OA
ENDBRANCH   8   9
ENDBRANCH   6   8
BRANCH   6  12
ATOM     12  C   UNL     1      15.673  18.231   2.745  0.00  0.00    +0.185 C 
BRANCH  12  13
ATOM     13  C   UNL     1      17.063  17.894   2.207  0.00  0.00    +0.086 C 
ATOM     14  O   UNL     1      17.033  16.847   1.347  0.00  0.00    -0.544 OA
ATOM     15  O   UNL     1      18.132  18.398   2.508  0.00  0.00    -0.544 OA
ENDBRANCH  12  13
ENDBRANCH   6  12
ENDBRANCH   5   6
ENDBRANCH   4   5
ENDBRANCH   3   4
ENDBRANCH   2   3
ENDBRANCH   1   2
BRANCH   1  16
ATOM     16  O   UNL     1      13.926  22.531   6.909  0.00  0.00    -0.372 OA
BRANCH  16  17
ATOM     17  C   UNL     1      12.807  23.419   7.092  0.00  0.00    +0.210 C 
BRANCH  17  18
ATOM     18  C   UNL     1      11.638  23.109   6.138  0.00  0.00    +0.160 C 
BRANCH  18  19
ATOM     19  N   UNL     1      11.341  24.024   5.031  0.00  0.00    +0.245 N 
ATOM     20  H   UNL     1      12.165  23.933   4.437  0.00  0.00    +0.204 HD
BRANCH  19  21
ATOM     21  C   UNL     1      10.277  23.581   4.112  0.00  0.00    +0.185 C 
BRANCH  21  22
ATOM     22  C   UNL     1      10.271  24.310   2.767  0.00  0.00    +0.086 C 
ATOM     23  O   UNL     1      11.287  24.025   1.929  0.00  0.00    -0.544 OA
ATOM     24  O   UNL     1       9.401  25.089   2.402  0.00  0.00    -0.544 OA
ENDBRANCH  21  22
ENDBRANCH  19  21
BRANCH  19  25
ATOM     25  C   UNL     1      11.407  25.463   5.341  0.00  0.00    +0.185 C 
BRANCH  25  27
ATOM     26  O   UNL     1      10.683  26.322   7.438  0.00  0.00    -0.544 OA
ATOM     27  C   UNL     1      10.270  26.029   6.184  0.00  0.00    +0.086 C 
ATOM     28  O   UNL     1       9.109  26.222   5.868  0.00  0.00    -0.544 OA
ENDBRANCH  25  27
ENDBRANCH  19  25
ENDBRANCH  18  19
ENDBRANCH  17  18
ENDBRANCH  16  17
ENDBRANCH   1  16
TORSDOF 17
ENDMDL
