MODEL 1
REMARK VINA RESULT:      -3.4      0.000      0.000
REMARK  Name = 
REMARK  2 active torsions:
REMARK  status: ('A' for Active; 'I' for Inactive)
REMARK    1  A    between atoms: C_2  and  C_4
REMARK    2  A    between atoms: C_4  and  C_5
REMARK                            x       y       z     vdW  Elec       q    Type
REMARK                         _______ _______ _______ _____ _____    ______ ____
ROOT
ATOM      1  C   UNL     1      15.343  18.207   2.618  0.00  0.00    +0.103 C 
ENDROOT
BRANCH   1   3
ATOM      2  O   UNL     1      17.639  18.761   2.819  0.00  0.00    -0.549 OA
ATOM      3  C   UNL     1      16.756  17.933   2.229  0.00  0.00    +0.047 C 
ATOM      4  O   UNL     1      17.135  17.071   1.452  0.00  0.00    -0.549 OA
ENDBRANCH   1   3
BRANCH   1   5
ATOM      5  C   UNL     1      15.088  17.972   4.068  0.00  0.00    +0.047 C 
ATOM      6  O   UNL     1      14.930  19.129   4.746  0.00  0.00    -0.549 OA
ATOM      7  O   UNL     1      15.014  16.906   4.652  0.00  0.00    -0.549 OA
ENDBRANCH   1   5
TORSDOF 2
ENDMDL
MODEL 2
REMARK VINA RESULT:      -3.3      0.116      3.194
REMARK  Name = 
REMARK  2 active torsions:
REMARK  status: ('A' for Active; 'I' for Inactive)
REMARK    1  A    between atoms: C_2  and  C_4
REMARK    2  A    between atoms: C_4  and  C_5
REMARK                            x       y       z     vdW  Elec       q    Type
REMARK                         _______ _______ _______ _____ _____    ______ ____
ROOT
ATOM      1  C   UNL     1      15.312  18.193   2.670  0.00  0.00    +0.103 C 
ENDROOT
BRANCH   1   3
ATOM      2  O   UNL     1      15.023  16.904   4.638  0.00  0.00    -0.549 OA
ATOM      3  C   UNL     1      15.077  18.155   4.142  0.00  0.00    +0.047 C 
ATOM      4  O   UNL     1      14.931  19.121   4.874  0.00  0.00    -0.549 OA
ENDBRANCH   1   3
BRANCH   1   5
ATOM      5  C   UNL     1      16.733  17.935   2.305  0.00  0.00    +0.047 C 
ATOM      6  O   UNL     1      17.573  18.809   2.899  0.00  0.00    -0.549 OA
ATOM      7  O   UNL     1      17.173  17.067   1.572  0.00  0.00    -0.549 OA
ENDBRANCH   1   5
TORSDOF 2
ENDMDL
MODEL 3
REMARK VINA RESULT:      -3.2      1.476      1.919
REMARK  Name = 
REMARK  2 active torsions:
REMARK  status: ('A' for Active; 'I' for Inactive)
REMARK    1  A    between atoms: C_2  and  C_4
REMARK    2  A    between atoms: C_4  and  C_5
REMARK                            x       y       z     vdW  Elec       q    Type
REMARK                         _______ _______ _______ _____ _____    ______ ____
ROOT
ATOM      1  C   UNL     1      15.641  17.921   2.900  0.00  0.00    +0.103 C 
ENDROOT
BRANCH   1   3
ATOM      2  O   UNL     1      17.967  18.379   2.864  0.00  0.00    -0.549 OA
ATOM      3  C   UNL     1      16.974  17.686   2.273  0.00  0.00    +0.047 C 
ATOM      4  O   UNL     1      17.204  16.965   1.316  0.00  0.00    -0.549 OA
ENDBRANCH   1   3
BRANCH   1   5
ATOM      5  C   UNL     1      15.211  19.345   2.826  0.00  0.00    +0.047 C 
ATOM      6  O   UNL     1      15.140  19.785   1.551  0.00  0.00    -0.549 OA
ATOM      7  O   UNL     1      14.936  20.094   3.746  0.00  0.00    -0.549 OA
ENDBRANCH   1   5
TORSDOF 2
ENDMDL
MODEL 4
REMARK VINA RESULT:      -3.1      1.582      2.246
REMARK  Name = 
REMARK  2 active torsions:
REMARK  status: ('A' for Active; 'I' for Inactive)
REMARK    1  A    between atoms: C_2  and  C_4
REMARK    2  A    between atoms: C_4  and  C_5
REMARK                            x       y       z     vdW  Elec       q    Type
REMARK                         _______ _______ _______ _____ _____    ______ ____
ROOT
ATOM      1  C   UNL     1      15.868  17.861   2.961  0.00  0.00    +0.103 C 
ENDROOT
BRANCH   1   3
ATOM      2  O   UNL     1      17.239  16.911   1.276  0.00  0.00    -0.549 OA
ATOM      3  C   UNL     1      17.238  17.582   2.444  0.00  0.00    +0.047 C 
ATOM      4  O   UNL     1      18.289  17.894   2.982  0.00  0.00    -0.549 OA
ENDBRANCH   1   3
BRANCH   1   5
ATOM      5  C   UNL     1      15.523  19.310   2.933  0.00  0.00    +0.047 C 
ATOM      6  O   UNL     1      15.092  19.703   1.716  0.00  0.00    -0.549 OA
ATOM      7  O   UNL     1      15.591  20.114   3.846  0.00  0.00    -0.549 OA
ENDBRANCH   1   5
TORSDOF 2
ENDMDL
MODEL 5
REMARK VINA RESULT:      -3.1      0.835      3.188
REMARK  Name = 
REMARK  2 active torsions:
REMARK  status: ('A' for Active; 'I' for Inactive)
REMARK    1  A    between atoms: C_2  and  C_4
REMARK    2  A    between atoms: C_4  and  C_5
REMARK                            x       y       z     vdW  Elec       q    Type
REMARK                         _______ _______ _______ _____ _____    ______ ____
ROOT
ATOM      1  C   UNL     1      16.105  18.590   2.207  0.00  0.00    +0.103 C 
ENDROOT
BRANCH   1   3
ATOM      2  O   UNL     1      15.032  19.596   4.066  0.00  0.00    -0.549 OA
ATOM      3  C   UNL     1      15.271  18.432   3.433  0.00  0.00    +0.047 C 
ATOM      4  O   UNL     1      14.831  17.382   3.875  0.00  0.00    -0.549 OA
ENDBRANCH   1   3
BRANCH   1   5
ATOM      5  C   UNL     1      17.330  17.743   2.228  0.00  0.00    +0.047 C 
ATOM      6  O   UNL     1      17.301  16.790   1.271  0.00  0.00    -0.549 OA
ATOM      7  O   UNL     1      18.287  17.827   2.977  0.00  0.00    -0.549 OA
ENDBRANCH   1   5
TORSDOF 2
ENDMDL
MODEL 6
REMARK VINA RESULT:      -3.1      9.118     10.846
REMARK  Name = 
REMARK  2 active torsions:
REMARK  status: ('A' for Active; 'I' for Inactive)
REMARK    1  A    between atoms: C_2  and  C_4
REMARK    2  A    between atoms: C_4  and  C_5
REMARK                            x       y       z     vdW  Elec       q    Type
REMARK                         _______ _______ _______ _____ _____    ______ ____
ROOT
ATOM      1  C   UNL     1      12.071  26.127   9.212  0.00  0.00    +0.103 C 
ENDROOT
BRANCH   1   3
ATOM      2  O   UNL     1      10.121  27.427   8.854  0.00  0.00    -0.549 OA
ATOM      3  C   UNL     1      10.584  26.191   9.122  0.00  0.00    +0.047 C 
ATOM      4  O   UNL     1       9.811  25.259   9.277  0.00  0.00    -0.549 OA
ENDBRANCH   1   3
BRANCH   1   5
ATOM      5  C   UNL     1      12.682  25.323   8.116  0.00  0.00    +0.047 C 
ATOM      6  O   UNL     1      12.201  25.676   6.904  0.00  0.00    -0.549 OA
ATOM      7  O   UNL     1      13.516  24.441   8.209  0.00  0.00    -0.549 OA
ENDBRANCH   1   5
TORSDOF 2
ENDMDL
MODEL 7
REMARK VINA RESULT:      -3.1      9.105     10.522
REMARK  Name = 
REMARK  2 active torsions:
REMARK  status: ('A' for Active; 'I' for Inactive)
REMARK    1  A    between atoms: C_2  and  C_4
REMARK    2  A    between atoms: C_4  and  C_5
REMARK                            x       y       z     vdW  Elec       q    Type
REMARK                         _______ _______ _______ _____ _____    ______ ____
ROOT
ATOM      1  C   UNL     1      12.140  26.053   9.144  0.00  0.00    +0.103 C 
ENDROOT
BRANCH   1   3
ATOM      2  O   UNL     1      13.559  24.411   8.189  0.00  0.00    -0.549 OA
ATOM      3  C   UNL     1      12.646  25.365   7.921  0.00  0.00    +0.047 C 
ATOM      4  O   UNL     1      12.316  25.603   6.771  0.00  0.00    -0.549 OA
ENDBRANCH   1   3
BRANCH   1   5
ATOM      5  C   UNL     1      10.709  26.451   9.031  0.00  0.00    +0.047 C 
ATOM      6  O   UNL     1       9.878  25.461   9.425  0.00  0.00    -0.549 OA
ATOM      7  O   UNL     1      10.254  27.513   8.645  0.00  0.00    -0.549 OA
ENDBRANCH   1   5
TORSDOF 2
ENDMDL
MODEL 8
REMARK VINA RESULT:      -2.9     10.591     12.191
REMARK  Name = 
REMARK  2 active torsions:
REMARK  status: ('A' for Active; 'I' for Inactive)
REMARK    1  A    between atoms: C_2  and  C_4
REMARK    2  A    between atoms: C_4  and  C_5
REMARK                            x       y       z     vdW  Elec       q    Type
REMARK                         _______ _______ _______ _____ _____    ______ ____
ROOT
ATOM      1  C   UNL     1      10.220  26.371   9.224  0.00  0.00    +0.103 C 
ENDROOT
BRANCH   1   3
ATOM      2  O   UNL     1       8.580  24.667   9.384  0.00  0.00    -0.549 OA
ATOM      3  C   UNL     1       9.641  25.109   8.682  0.00  0.00    +0.047 C 
ATOM      4  O   UNL     1      10.047  24.486   7.713  0.00  0.00    -0.549 OA
ENDBRANCH   1   3
BRANCH   1   5
ATOM      5  C   UNL     1       9.395  27.569   8.902  0.00  0.00    +0.047 C 
ATOM      6  O   UNL     1       9.629  28.022   7.651  0.00  0.00    -0.549 OA
ATOM      7  O   UNL     1       8.586  28.136   9.616  0.00  0.00    -0.549 OA
ENDBRANCH   1   5
TORSDOF 2
ENDMDL
MODEL 9
REMARK VINA RESULT:      -2.9      1.952      3.405
REMARK  Name = 
REMARK  2 active torsions:
REMARK  status: ('A' for Active; 'I' for Inactive)
REMARK    1  A    between atoms: C_2  and  C_4
REMARK    2  A    between atoms: C_4  and  C_5
REMARK                            x       y       z     vdW  Elec       q    Type
REMARK                         _______ _______ _______ _____ _____    ______ ____
ROOT
ATOM      1  C   UNL     1      14.806  20.229   2.837  0.00  0.00    +0.103 C 
ENDROOT
BRANCH   1   3
ATOM      2  O   UNL     1      15.695  21.681   4.487  0.00  0.00    -0.549 OA
ATOM      3  C   UNL     1      14.989  20.552   4.281  0.00  0.00    +0.047 C 
ATOM      4  O   UNL     1      14.577  19.897   5.225  0.00  0.00    -0.549 OA
ENDBRANCH   1   3
BRANCH   1   5
ATOM      5  C   UNL     1      15.269  18.855   2.490  0.00  0.00    +0.047 C 
ATOM      6  O   UNL     1      16.490  18.865   1.914  0.00  0.00    -0.549 OA
ATOM      7  O   UNL     1      14.686  17.801   2.667  0.00  0.00    -0.549 OA
ENDBRANCH   1   5
TORSDOF 2
ENDMDL
