MODEL 1
REMARK VINA RESULT:      -2.9      0.000      0.000
REMARK  Name = 
REMARK  1 active torsions:
REMARK  status: ('A' for Active; 'I' for Inactive)
REMARK    1  A    between atoms: C_2  and  C_4
REMARK                            x       y       z     vdW  Elec       q    Type
REMARK                         _______ _______ _______ _____ _____    ______ ____
ROOT
ATOM      1  O   UNL     1      14.827  17.595   3.441  0.00  0.00    -0.543 OA
ATOM      2  C   UNL     1      15.364  18.395   2.509  0.00  0.00    +0.087 C 
ATOM      3  O   UNL     1      14.746  19.323   2.026  0.00  0.00    -0.543 OA
ENDROOT
BRANCH   2   4
ATOM      4  C   UNL     1      16.825  17.994   2.141  0.00  0.00    +0.087 C 
ATOM      5  O   UNL     1      17.741  18.754   2.758  0.00  0.00    -0.543 OA
ATOM      6  O   UNL     1      17.140  17.097   1.383  0.00  0.00    -0.543 OA
ENDBRANCH   2   4
TORSDOF 1
ENDMDL
MODEL 2
REMARK VINA RESULT:      -2.9      0.068      2.813
REMARK  Name = 
REMARK  1 active torsions:
REMARK  status: ('A' for Active; 'I' for Inactive)
REMARK    1  A    between atoms: C_2  and  C_4
REMARK                            x       y       z     vdW  Elec       q    Type
REMARK                         _______ _______ _______ _____ _____    ______ ____
ROOT
ATOM      1  O   UNL     1      17.746  18.733   2.757  0.00  0.00    -0.543 OA
ATOM      2  C   UNL     1      16.828  17.965   2.154  0.00  0.00    +0.087 C 
ATOM      3  O   UNL     1      17.138  17.078   1.384  0.00  0.00    -0.543 OA
ENDROOT
BRANCH   2   4
ATOM      4  C   UNL     1      15.369  18.343   2.556  0.00  0.00    +0.087 C 
ATOM      5  O   UNL     1      14.880  17.558   3.526  0.00  0.00    -0.543 OA
ATOM      6  O   UNL     1      14.715  19.243   2.067  0.00  0.00    -0.543 OA
ENDBRANCH   2   4
TORSDOF 1
ENDMDL
MODEL 3
REMARK VINA RESULT:      -2.7      1.461      2.535
REMARK  Name = 
REMARK  1 active torsions:
REMARK  status: ('A' for Active; 'I' for Inactive)
REMARK    1  A    between atoms: C_2  and  C_4
REMARK                            x       y       z     vdW  Elec       q    Type
REMARK                         _______ _______ _______ _____ _____    ______ ____
ROOT
ATOM      1  O   UNL     1      15.967  18.949   1.858  0.00  0.00    -0.543 OA
ATOM      2  C   UNL     1      16.962  18.096   2.140  0.00  0.00    +0.087 C 
ATOM      3  O   UNL     1      17.223  17.153   1.419  0.00  0.00    -0.543 OA
ENDROOT
BRANCH   2   4
ATOM      4  C   UNL     1      17.710  18.459   3.459  0.00  0.00    +0.087 C 
ATOM      5  O   UNL     1      18.811  17.719   3.650  0.00  0.00    -0.543 OA
ATOM      6  O   UNL     1      17.364  19.313   4.252  0.00  0.00    -0.543 OA
ENDBRANCH   2   4
TORSDOF 1
ENDMDL
MODEL 4
REMARK VINA RESULT:      -2.6      1.447      2.478
REMARK  Name = 
REMARK  1 active torsions:
REMARK  status: ('A' for Active; 'I' for Inactive)
REMARK    1  A    between atoms: C_2  and  C_4
REMARK                            x       y       z     vdW  Elec       q    Type
REMARK                         _______ _______ _______ _____ _____    ______ ____
ROOT
ATOM      1  O   UNL     1      14.863  19.214   5.298  0.00  0.00    -0.543 OA
ATOM      2  C   UNL     1      15.110  18.287   4.363  0.00  0.00    +0.087 C 
ATOM      3  O   UNL     1      15.005  17.098   4.593  0.00  0.00    -0.543 OA
ENDROOT
BRANCH   2   4
ATOM      4  C   UNL     1      15.534  18.909   2.997  0.00  0.00    +0.087 C 
ATOM      5  O   UNL     1      16.854  18.829   2.779  0.00  0.00    -0.543 OA
ATOM      6  O   UNL     1      14.780  19.419   2.191  0.00  0.00    -0.543 OA
ENDBRANCH   2   4
TORSDOF 1
ENDMDL
MODEL 5
REMARK VINA RESULT:      -2.6     11.577     12.330
REMARK  Name = 
REMARK  1 active torsions:
REMARK  status: ('A' for Active; 'I' for Inactive)
REMARK    1  A    between atoms: C_2  and  C_4
REMARK                            x       y       z     vdW  Elec       q    Type
REMARK                         _______ _______ _______ _____ _____    ______ ____
ROOT
ATOM      1  O   UNL     1       9.709  25.280   9.678  0.00  0.00    -0.543 OA
ATOM      2  C   UNL     1      10.686  26.093   9.252  0.00  0.00    +0.087 C 
ATOM      3  O   UNL     1      11.855  25.881   9.508  0.00  0.00    -0.543 OA
ENDROOT
BRANCH   2   4
ATOM      4  C   UNL     1      10.147  27.296   8.419  0.00  0.00    +0.087 C 
ATOM      5  O   UNL     1       9.937  26.982   7.133  0.00  0.00    -0.543 OA
ATOM      6  O   UNL     1       9.928  28.410   8.852  0.00  0.00    -0.543 OA
ENDBRANCH   2   4
TORSDOF 1
ENDMDL
MODEL 6
REMARK VINA RESULT:      -2.6     10.680     11.775
REMARK  Name = 
REMARK  1 active torsions:
REMARK  status: ('A' for Active; 'I' for Inactive)
REMARK    1  A    between atoms: C_2  and  C_4
REMARK                            x       y       z     vdW  Elec       q    Type
REMARK                         _______ _______ _______ _____ _____    ______ ____
ROOT
ATOM      1  O   UNL     1      10.375  27.427   8.891  0.00  0.00    -0.543 OA
ATOM      2  C   UNL     1      10.790  26.171   9.110  0.00  0.00    +0.087 C 
ATOM      3  O   UNL     1      11.879  25.929   9.593  0.00  0.00    -0.543 OA
ENDROOT
BRANCH   2   4
ATOM      4  C   UNL     1       9.736  25.105   8.679  0.00  0.00    +0.087 C 
ATOM      5  O   UNL     1      10.026  24.537   7.501  0.00  0.00    -0.543 OA
ATOM      6  O   UNL     1       8.747  24.797   9.315  0.00  0.00    -0.543 OA
ENDBRANCH   2   4
TORSDOF 1
ENDMDL
MODEL 7
REMARK VINA RESULT:      -2.6      1.518      2.186
REMARK  Name = 
REMARK  1 active torsions:
REMARK  status: ('A' for Active; 'I' for Inactive)
REMARK    1  A    between atoms: C_2  and  C_4
REMARK                            x       y       z     vdW  Elec       q    Type
REMARK                         _______ _______ _______ _____ _____    ______ ____
ROOT
ATOM      1  O   UNL     1      14.964  17.214   4.399  0.00  0.00    -0.543 OA
ATOM      2  C   UNL     1      16.246  17.412   4.064  0.00  0.00    +0.087 C 
ATOM      3  O   UNL     1      17.146  17.305   4.874  0.00  0.00    -0.543 OA
ENDROOT
BRANCH   2   4
ATOM      4  C   UNL     1      16.425  17.781   2.559  0.00  0.00    +0.087 C 
ATOM      5  O   UNL     1      15.609  18.771   2.170  0.00  0.00    -0.543 OA
ATOM      6  O   UNL     1      17.207  17.253   1.793  0.00  0.00    -0.543 OA
ENDBRANCH   2   4
TORSDOF 1
ENDMDL
MODEL 8
REMARK VINA RESULT:      -2.6      9.092      9.832
REMARK  Name = 
REMARK  1 active torsions:
REMARK  status: ('A' for Active; 'I' for Inactive)
REMARK    1  A    between atoms: C_2  and  C_4
REMARK                            x       y       z     vdW  Elec       q    Type
REMARK                         _______ _______ _______ _____ _____    ______ ____
ROOT
ATOM      1  O   UNL     1      12.222  25.930   9.061  0.00  0.00    -0.543 OA
ATOM      2  C   UNL     1      12.705  25.226   8.027  0.00  0.00    +0.087 C 
ATOM      3  O   UNL     1      13.589  24.404   8.166  0.00  0.00    -0.543 OA
ENDROOT
BRANCH   2   4
ATOM      4  C   UNL     1      12.011  25.587   6.677  0.00  0.00    +0.087 C 
ATOM      5  O   UNL     1      12.869  25.626   5.648  0.00  0.00    -0.543 OA
ATOM      6  O   UNL     1      10.825  25.814   6.534  0.00  0.00    -0.543 OA
ENDBRANCH   2   4
TORSDOF 1
ENDMDL
MODEL 9
REMARK VINA RESULT:      -2.6      8.832      9.626
REMARK  Name = 
REMARK  1 active torsions:
REMARK  status: ('A' for Active; 'I' for Inactive)
REMARK    1  A    between atoms: C_2  and  C_4
REMARK                            x       y       z     vdW  Elec       q    Type
REMARK                         _______ _______ _______ _____ _____    ______ ____
ROOT
ATOM      1  O   UNL     1      11.006  25.821   6.247  0.00  0.00    -0.543 OA
ATOM      2  C   UNL     1      12.303  25.525   6.405  0.00  0.00    +0.087 C 
ATOM      3  O   UNL     1      13.061  25.435   5.460  0.00  0.00    -0.543 OA
ENDROOT
BRANCH   2   4
ATOM      4  C   UNL     1      12.696  25.321   7.901  0.00  0.00    +0.087 C 
ATOM      5  O   UNL     1      13.626  24.369   8.066  0.00  0.00    -0.543 OA
ATOM      6  O   UNL     1      12.233  25.936   8.841  0.00  0.00    -0.543 OA
ENDBRANCH   2   4
TORSDOF 1
ENDMDL
