MODEL 1
REMARK VINA RESULT:      -5.2      0.000      0.000
REMARK  Name = 
REMARK  2 active torsions:
REMARK  status: ('A' for Active; 'I' for Inactive)
REMARK    1  A    between atoms: C_2  and  C_4
REMARK    2  A    between atoms: C_9  and  O_10
REMARK                            x       y       z     vdW  Elec       q    Type
REMARK                         _______ _______ _______ _____ _____    ______ ____
ROOT
ATOM      1  C   UNL     1      17.127  17.319   4.373  0.00  0.00    +0.039 A 
ATOM      2  C   UNL     1      17.549  17.821   3.134  0.00  0.00    +0.126 A 
ATOM      3  C   UNL     1      16.615  18.244   2.188  0.00  0.00    +0.046 A 
ATOM      4  C   UNL     1      15.251  18.168   2.471  0.00  0.00    +0.004 A 
ATOM      5  C   UNL     1      14.819  17.672   3.698  0.00  0.00    +0.001 A 
ATOM      6  C   UNL     1      15.752  17.247   4.646  0.00  0.00    +0.013 A 
ENDROOT
BRANCH   1   8
ATOM      7  O   UNL     1      18.709  17.850   6.048  0.00  0.00    -0.545 OA
ATOM      8  C   UNL     1      18.053  16.846   5.431  0.00  0.00    +0.075 C 
ATOM      9  O   UNL     1      18.245  15.688   5.753  0.00  0.00    -0.545 OA
ENDBRANCH   1   8
BRANCH   2  10
ATOM     10  O   UNL     1      18.863  17.936   2.766  0.00  0.00    -0.506 OA
ATOM     11  H   UNL     1      19.131  18.630   2.198  0.00  0.00    +0.292 HD
ENDBRANCH   2  10
TORSDOF 2
ENDMDL
MODEL 2
REMARK VINA RESULT:      -5.1      3.303      4.232
REMARK  Name = 
REMARK  2 active torsions:
REMARK  status: ('A' for Active; 'I' for Inactive)
REMARK    1  A    between atoms: C_2  and  C_4
REMARK    2  A    between atoms: C_9  and  O_10
REMARK                            x       y       z     vdW  Elec       q    Type
REMARK                         _______ _______ _______ _____ _____    ______ ____
ROOT
ATOM      1  C   UNL     1      15.307  20.390   4.259  0.00  0.00    +0.039 A 
ATOM      2  C   UNL     1      15.625  19.143   4.816  0.00  0.00    +0.126 A 
ATOM      3  C   UNL     1      15.507  17.980   4.056  0.00  0.00    +0.046 A 
ATOM      4  C   UNL     1      15.071  18.050   2.732  0.00  0.00    +0.004 A 
ATOM      5  C   UNL     1      14.754  19.284   2.167  0.00  0.00    +0.001 A 
ATOM      6  C   UNL     1      14.870  20.450   2.927  0.00  0.00    +0.013 A 
ENDROOT
BRANCH   1   8
ATOM      7  O   UNL     1      15.419  22.751   4.189  0.00  0.00    -0.545 OA
ATOM      8  C   UNL     1      15.401  21.672   4.999  0.00  0.00    +0.075 C 
ATOM      9  O   UNL     1      15.460  21.802   6.208  0.00  0.00    -0.545 OA
ENDBRANCH   1   8
BRANCH   2  10
ATOM     10  O   UNL     1      16.061  18.973   6.102  0.00  0.00    -0.506 OA
ATOM     11  H   UNL     1      15.449  18.994   6.811  0.00  0.00    +0.292 HD
ENDBRANCH   2  10
TORSDOF 2
ENDMDL
MODEL 3
REMARK VINA RESULT:      -5.0      2.464      3.181
REMARK  Name = 
REMARK  2 active torsions:
REMARK  status: ('A' for Active; 'I' for Inactive)
REMARK    1  A    between atoms: C_2  and  C_4
REMARK    2  A    between atoms: C_9  and  O_10
REMARK                            x       y       z     vdW  Elec       q    Type
REMARK                         _______ _______ _______ _____ _____    ______ ____
ROOT
ATOM      1  C   UNL     1      16.512  19.504   4.102  0.00  0.00    +0.039 A 
ATOM      2  C   UNL     1      17.765  18.878   4.068  0.00  0.00    +0.126 A 
ATOM      3  C   UNL     1      18.027  17.872   3.138  0.00  0.00    +0.046 A 
ATOM      4  C   UNL     1      17.040  17.481   2.234  0.00  0.00    +0.004 A 
ATOM      5  C   UNL     1      15.790  18.096   2.257  0.00  0.00    +0.001 A 
ATOM      6  C   UNL     1      15.525  19.103   3.188  0.00  0.00    +0.013 A 
ENDROOT
BRANCH   1   8
ATOM      7  O   UNL     1      16.382  20.240   6.346  0.00  0.00    -0.545 OA
ATOM      8  C   UNL     1      16.151  20.577   5.060  0.00  0.00    +0.075 C 
ATOM      9  O   UNL     1      15.691  21.668   4.777  0.00  0.00    -0.545 OA
ENDBRANCH   1   8
BRANCH   2  10
ATOM     10  O   UNL     1      18.797  19.192   4.911  0.00  0.00    -0.506 OA
ATOM     11  H   UNL     1      19.438  19.824   4.652  0.00  0.00    +0.292 HD
ENDBRANCH   2  10
TORSDOF 2
ENDMDL
MODEL 4
REMARK VINA RESULT:      -5.0      9.625     10.510
REMARK  Name = 
REMARK  2 active torsions:
REMARK  status: ('A' for Active; 'I' for Inactive)
REMARK    1  A    between atoms: C_2  and  C_4
REMARK    2  A    between atoms: C_9  and  O_10
REMARK                            x       y       z     vdW  Elec       q    Type
REMARK                         _______ _______ _______ _____ _____    ______ ____
ROOT
ATOM      1  C   UNL     1      11.412  24.940   7.288  0.00  0.00    +0.039 A 
ATOM      2  C   UNL     1      12.174  25.552   8.293  0.00  0.00    +0.126 A 
ATOM      3  C   UNL     1      11.580  25.931   9.497  0.00  0.00    +0.046 A 
ATOM      4  C   UNL     1      10.220  25.703   9.709  0.00  0.00    +0.004 A 
ATOM      5  C   UNL     1       9.452  25.095   8.718  0.00  0.00    +0.001 A 
ATOM      6  C   UNL     1      10.045  24.715   7.511  0.00  0.00    +0.013 A 
ENDROOT
BRANCH   1   8
ATOM      7  O   UNL     1      12.715  25.460   5.384  0.00  0.00    -0.545 OA
ATOM      8  C   UNL     1      11.964  24.510   5.980  0.00  0.00    +0.075 C 
ATOM      9  O   UNL     1      11.792  23.429   5.448  0.00  0.00    -0.545 OA
ENDBRANCH   1   8
BRANCH   2  10
ATOM     10  O   UNL     1      13.513  25.815   8.180  0.00  0.00    -0.506 OA
ATOM     11  H   UNL     1      13.850  26.194   7.393  0.00  0.00    +0.292 HD
ENDBRANCH   2  10
TORSDOF 2
ENDMDL
MODEL 5
REMARK VINA RESULT:      -5.0      9.840     10.744
REMARK  Name = 
REMARK  2 active torsions:
REMARK  status: ('A' for Active; 'I' for Inactive)
REMARK    1  A    between atoms: C_2  and  C_4
REMARK    2  A    between atoms: C_9  and  O_10
REMARK                            x       y       z     vdW  Elec       q    Type
REMARK                         _______ _______ _______ _____ _____    ______ ____
ROOT
ATOM      1  C   UNL     1      11.579  25.179   7.210  0.00  0.00    +0.039 A 
ATOM      2  C   UNL     1      10.193  25.021   7.349  0.00  0.00    +0.126 A 
ATOM      3  C   UNL     1       9.567  25.314   8.561  0.00  0.00    +0.046 A 
ATOM      4  C   UNL     1      10.319  25.767   9.645  0.00  0.00    +0.004 A 
ATOM      5  C   UNL     1      11.697  25.929   9.520  0.00  0.00    +0.001 A 
ATOM      6  C   UNL     1      12.326  25.635   8.308  0.00  0.00    +0.013 A 
ENDROOT
BRANCH   1   8
ATOM      7  O   UNL     1      12.041  23.671   5.448  0.00  0.00    -0.545 OA
ATOM      8  C   UNL     1      12.322  24.887   5.960  0.00  0.00    +0.075 C 
ATOM      9  O   UNL     1      13.115  25.627   5.406  0.00  0.00    -0.545 OA
ENDBRANCH   1   8
BRANCH   2  10
ATOM     10  O   UNL     1       9.372  24.585   6.344  0.00  0.00    -0.506 OA
ATOM     11  H   UNL     1       8.882  25.203   5.838  0.00  0.00    +0.292 HD
ENDBRANCH   2  10
TORSDOF 2
ENDMDL
MODEL 6
REMARK VINA RESULT:      -4.9      3.495      4.059
REMARK  Name = 
REMARK  2 active torsions:
REMARK  status: ('A' for Active; 'I' for Inactive)
REMARK    1  A    between atoms: C_2  and  C_4
REMARK    2  A    between atoms: C_9  and  O_10
REMARK                            x       y       z     vdW  Elec       q    Type
REMARK                         _______ _______ _______ _____ _____    ______ ____
ROOT
ATOM      1  C   UNL     1      14.881  19.905   4.820  0.00  0.00    +0.039 A 
ATOM      2  C   UNL     1      14.837  20.442   3.525  0.00  0.00    +0.126 A 
ATOM      3  C   UNL     1      14.944  19.609   2.412  0.00  0.00    +0.046 A 
ATOM      4  C   UNL     1      15.095  18.232   2.580  0.00  0.00    +0.004 A 
ATOM      5  C   UNL     1      15.138  17.686   3.861  0.00  0.00    +0.001 A 
ATOM      6  C   UNL     1      15.033  18.519   4.978  0.00  0.00    +0.013 A 
ENDROOT
BRANCH   1   8
ATOM      7  O   UNL     1      13.661  21.475   6.100  0.00  0.00    -0.545 OA
ATOM      8  C   UNL     1      14.778  20.720   6.055  0.00  0.00    +0.075 C 
ATOM      9  O   UNL     1      15.585  20.748   6.966  0.00  0.00    -0.545 OA
ENDBRANCH   1   8
BRANCH   2  10
ATOM     10  O   UNL     1      14.691  21.776   3.259  0.00  0.00    -0.506 OA
ATOM     11  H   UNL     1      14.977  22.413   3.884  0.00  0.00    +0.292 HD
ENDBRANCH   2  10
TORSDOF 2
ENDMDL
MODEL 7
REMARK VINA RESULT:      -4.8     10.401     11.358
REMARK  Name = 
REMARK  2 active torsions:
REMARK  status: ('A' for Active; 'I' for Inactive)
REMARK    1  A    between atoms: C_2  and  C_4
REMARK    2  A    between atoms: C_9  and  O_10
REMARK                            x       y       z     vdW  Elec       q    Type
REMARK                         _______ _______ _______ _____ _____    ______ ____
ROOT
ATOM      1  C   UNL     1      10.635  25.070   7.191  0.00  0.00    +0.039 A 
ATOM      2  C   UNL     1       9.858  25.407   8.307  0.00  0.00    +0.126 A 
ATOM      3  C   UNL     1      10.464  25.864   9.478  0.00  0.00    +0.046 A 
ATOM      4  C   UNL     1      11.852  25.988   9.544  0.00  0.00    +0.004 A 
ATOM      5  C   UNL     1      12.636  25.657   8.441  0.00  0.00    +0.001 A 
ATOM      6  C   UNL     1      12.031  25.199   7.268  0.00  0.00    +0.013 A 
ENDROOT
BRANCH   1   8
ATOM      7  O   UNL     1       9.139  25.399   5.389  0.00  0.00    -0.545 OA
ATOM      8  C   UNL     1      10.071  24.575   5.911  0.00  0.00    +0.075 C 
ATOM      9  O   UNL     1      10.376  23.541   5.344  0.00  0.00    -0.545 OA
ENDBRANCH   1   8
BRANCH   2  10
ATOM     10  O   UNL     1       8.492  25.321   8.339  0.00  0.00    -0.506 OA
ATOM     11  H   UNL     1       8.026  25.555   9.116  0.00  0.00    +0.292 HD
ENDBRANCH   2  10
TORSDOF 2
ENDMDL
MODEL 8
REMARK VINA RESULT:      -4.8     11.099     11.958
REMARK  Name = 
REMARK  2 active torsions:
REMARK  status: ('A' for Active; 'I' for Inactive)
REMARK    1  A    between atoms: C_2  and  C_4
REMARK    2  A    between atoms: C_9  and  O_10
REMARK                            x       y       z     vdW  Elec       q    Type
REMARK                         _______ _______ _______ _____ _____    ______ ____
ROOT
ATOM      1  C   UNL     1      10.323  26.084   8.442  0.00  0.00    +0.039 A 
ATOM      2  C   UNL     1      10.337  25.188   7.364  0.00  0.00    +0.126 A 
ATOM      3  C   UNL     1      11.518  24.544   6.996  0.00  0.00    +0.046 A 
ATOM      4  C   UNL     1      12.697  24.789   7.702  0.00  0.00    +0.004 A 
ATOM      5  C   UNL     1      12.696  25.676   8.776  0.00  0.00    +0.001 A 
ATOM      6  C   UNL     1      11.514  26.323   9.145  0.00  0.00    +0.013 A 
ENDROOT
BRANCH   1   8
ATOM      7  O   UNL     1       7.991  26.062   8.840  0.00  0.00    -0.545 OA
ATOM      8  C   UNL     1       9.112  26.812   8.895  0.00  0.00    +0.075 C 
ATOM      9  O   UNL     1       9.070  27.964   9.285  0.00  0.00    -0.545 OA
ENDBRANCH   1   8
BRANCH   2  10
ATOM     10  O   UNL     1       9.234  24.883   6.613  0.00  0.00    -0.506 OA
ATOM     11  H   UNL     1       9.296  24.857   5.679  0.00  0.00    +0.292 HD
ENDBRANCH   2  10
TORSDOF 2
ENDMDL
MODEL 9
REMARK VINA RESULT:      -4.7      1.900      3.037
REMARK  Name = 
REMARK  2 active torsions:
REMARK  status: ('A' for Active; 'I' for Inactive)
REMARK    1  A    between atoms: C_2  and  C_4
REMARK    2  A    between atoms: C_9  and  O_10
REMARK                            x       y       z     vdW  Elec       q    Type
REMARK                         _______ _______ _______ _____ _____    ______ ____
ROOT
ATOM      1  C   UNL     1      16.439  18.514   3.208  0.00  0.00    +0.039 A 
ATOM      2  C   UNL     1      16.276  19.048   4.494  0.00  0.00    +0.126 A 
ATOM      3  C   UNL     1      15.387  20.100   4.714  0.00  0.00    +0.046 A 
ATOM      4  C   UNL     1      14.653  20.628   3.652  0.00  0.00    +0.004 A 
ATOM      5  C   UNL     1      14.805  20.106   2.370  0.00  0.00    +0.001 A 
ATOM      6  C   UNL     1      15.696  19.053   2.147  0.00  0.00    +0.013 A 
ENDROOT
BRANCH   1   8
ATOM      7  O   UNL     1      17.281  16.993   1.604  0.00  0.00    -0.545 OA
ATOM      8  C   UNL     1      17.365  17.399   2.889  0.00  0.00    +0.075 C 
ATOM      9  O   UNL     1      18.141  16.865   3.660  0.00  0.00    -0.545 OA
ENDBRANCH   1   8
BRANCH   2  10
ATOM     10  O   UNL     1      16.949  18.596   5.597  0.00  0.00    -0.506 OA
ATOM     11  H   UNL     1      17.861  18.785   5.699  0.00  0.00    +0.292 HD
ENDBRANCH   2  10
TORSDOF 2
ENDMDL
