MODEL 1
REMARK VINA RESULT:      -4.1      0.000      0.000
REMARK  Name = 
REMARK  5 active torsions:
REMARK  status: ('A' for Active; 'I' for Inactive)
REMARK    1  A    between atoms: C_2  and  C_4
REMARK    2  A    between atoms: C_4  and  O_5
REMARK    3  A    between atoms: C_4  and  C_6
REMARK    4  A    between atoms: C_6  and  O_7
REMARK    5  A    between atoms: C_6  and  C_8
REMARK                            x       y       z     vdW  Elec       q    Type
REMARK                         _______ _______ _______ _____ _____    ______ ____
ROOT
ATOM      1  C   UNL     1      14.647  23.346   5.126  0.00  0.00    +0.194 C 
ENDROOT
BRANCH   1   3
ATOM      2  O   UNL     1      13.998  22.267   7.151  0.00  0.00    -0.547 OA
ATOM      3  C   UNL     1      14.935  23.073   6.596  0.00  0.00    +0.073 C 
ATOM      4  O   UNL     1      15.877  23.477   7.258  0.00  0.00    -0.547 OA
ENDBRANCH   1   3
BRANCH   1   5
ATOM      5  O   UNL     1      15.059  24.682   4.818  0.00  0.00    -0.383 OA
ATOM      6  H   UNL     1      15.552  25.049   5.569  0.00  0.00    +0.210 HD
ENDBRANCH   1   5
BRANCH   1   7
ATOM      7  C   UNL     1      15.393  22.326   4.263  0.00  0.00    +0.194 C 
BRANCH   7   8
ATOM      8  C   UNL     1      14.369  21.536   3.463  0.00  0.00    +0.073 C 
ATOM      9  O   UNL     1      13.131  22.077   3.510  0.00  0.00    -0.547 OA
ATOM     10  O   UNL     1      14.569  20.523   2.810  0.00  0.00    -0.547 OA
ENDBRANCH   7   8
BRANCH   7  11
ATOM     11  O   UNL     1      16.146  21.411   5.069  0.00  0.00    -0.383 OA
ATOM     12  H   UNL     1      17.090  21.628   5.009  0.00  0.00    +0.210 HD
ENDBRANCH   7  11
ENDBRANCH   1   7
TORSDOF 5
ENDMDL
MODEL 2
REMARK VINA RESULT:      -4.1      1.483      2.225
REMARK  Name = 
REMARK  5 active torsions:
REMARK  status: ('A' for Active; 'I' for Inactive)
REMARK    1  A    between atoms: C_2  and  C_4
REMARK    2  A    between atoms: C_4  and  O_5
REMARK    3  A    between atoms: C_4  and  C_6
REMARK    4  A    between atoms: C_6  and  O_7
REMARK    5  A    between atoms: C_6  and  C_8
REMARK                            x       y       z     vdW  Elec       q    Type
REMARK                         _______ _______ _______ _____ _____    ______ ____
ROOT
ATOM      1  C   UNL     1      13.896  24.241   4.902  0.00  0.00    +0.194 C 
ENDROOT
BRANCH   1   3
ATOM      2  O   UNL     1      12.938  25.312   6.805  0.00  0.00    -0.547 OA
ATOM      3  C   UNL     1      13.163  24.106   6.230  0.00  0.00    +0.073 C 
ATOM      4  O   UNL     1      12.777  23.080   6.766  0.00  0.00    -0.547 OA
ENDBRANCH   1   3
BRANCH   1   5
ATOM      5  O   UNL     1      13.940  25.626   4.541  0.00  0.00    -0.383 OA
ATOM      6  H   UNL     1      13.463  25.757   3.706  0.00  0.00    +0.210 HD
ENDBRANCH   1   5
BRANCH   1   7
ATOM      7  C   UNL     1      15.306  23.661   5.037  0.00  0.00    +0.194 C 
BRANCH   7   8
ATOM      8  C   UNL     1      15.273  22.213   4.573  0.00  0.00    +0.073 C 
ATOM      9  O   UNL     1      14.422  22.007   3.543  0.00  0.00    -0.547 OA
ATOM     10  O   UNL     1      15.928  21.282   5.020  0.00  0.00    -0.547 OA
ENDBRANCH   7   8
BRANCH   7  11
ATOM     11  O   UNL     1      15.757  23.693   6.396  0.00  0.00    -0.383 OA
ATOM     12  H   UNL     1      15.161  23.162   6.948  0.00  0.00    +0.210 HD
ENDBRANCH   7  11
ENDBRANCH   1   7
TORSDOF 5
ENDMDL
MODEL 3
REMARK VINA RESULT:      -4.0      2.284      3.319
REMARK  Name = 
REMARK  5 active torsions:
REMARK  status: ('A' for Active; 'I' for Inactive)
REMARK    1  A    between atoms: C_2  and  C_4
REMARK    2  A    between atoms: C_4  and  O_5
REMARK    3  A    between atoms: C_4  and  C_6
REMARK    4  A    between atoms: C_6  and  O_7
REMARK    5  A    between atoms: C_6  and  C_8
REMARK                            x       y       z     vdW  Elec       q    Type
REMARK                         _______ _______ _______ _____ _____    ______ ____
ROOT
ATOM      1  C   UNL     1      13.022  24.764   4.766  0.00  0.00    +0.194 C 
ENDROOT
BRANCH   1   3
ATOM      2  O   UNL     1      11.066  25.857   5.584  0.00  0.00    -0.547 OA
ATOM      3  C   UNL     1      12.292  25.403   5.940  0.00  0.00    +0.073 C 
ATOM      4  O   UNL     1      12.685  25.515   7.090  0.00  0.00    -0.547 OA
ENDBRANCH   1   3
BRANCH   1   5
ATOM      5  O   UNL     1      14.234  25.488   4.531  0.00  0.00    -0.383 OA
ATOM      6  H   UNL     1      14.022  26.404   4.291  0.00  0.00    +0.210 HD
ENDBRANCH   1   5
BRANCH   1   7
ATOM      7  C   UNL     1      13.309  23.295   5.084  0.00  0.00    +0.194 C 
BRANCH   7   8
ATOM      8  C   UNL     1      14.800  23.144   5.342  0.00  0.00    +0.073 C 
ATOM      9  O   UNL     1      15.484  22.722   4.256  0.00  0.00    -0.547 OA
ATOM     10  O   UNL     1      15.393  23.376   6.386  0.00  0.00    -0.547 OA
ENDBRANCH   7   8
BRANCH   7  11
ATOM     11  O   UNL     1      12.948  22.443   3.990  0.00  0.00    -0.383 OA
ATOM     12  H   UNL     1      12.460  21.674   4.326  0.00  0.00    +0.210 HD
ENDBRANCH   7  11
ENDBRANCH   1   7
TORSDOF 5
ENDMDL
MODEL 4
REMARK VINA RESULT:      -4.0      2.433      4.066
REMARK  Name = 
REMARK  5 active torsions:
REMARK  status: ('A' for Active; 'I' for Inactive)
REMARK    1  A    between atoms: C_2  and  C_4
REMARK    2  A    between atoms: C_4  and  O_5
REMARK    3  A    between atoms: C_4  and  C_6
REMARK    4  A    between atoms: C_6  and  O_7
REMARK    5  A    between atoms: C_6  and  C_8
REMARK                            x       y       z     vdW  Elec       q    Type
REMARK                         _______ _______ _______ _____ _____    ______ ____
ROOT
ATOM      1  C   UNL     1      14.147  24.066   5.182  0.00  0.00    +0.194 C 
ENDROOT
BRANCH   1   3
ATOM      2  O   UNL     1      12.815  22.090   5.277  0.00  0.00    -0.547 OA
ATOM      3  C   UNL     1      13.819  22.697   4.600  0.00  0.00    +0.073 C 
ATOM      4  O   UNL     1      14.336  22.154   3.638  0.00  0.00    -0.547 OA
ENDBRANCH   1   3
BRANCH   1   5
ATOM      5  O   UNL     1      15.487  24.411   4.816  0.00  0.00    -0.383 OA
ATOM      6  H   UNL     1      15.853  25.025   5.472  0.00  0.00    +0.210 HD
ENDBRANCH   1   5
BRANCH   1   7
ATOM      7  C   UNL     1      13.147  25.097   4.654  0.00  0.00    +0.194 C 
BRANCH   7   8
ATOM      8  C   UNL     1      12.191  25.457   5.781  0.00  0.00    +0.073 C 
ATOM      9  O   UNL     1      12.729  25.278   7.007  0.00  0.00    -0.547 OA
ATOM     10  O   UNL     1      11.051  25.883   5.670  0.00  0.00    -0.547 OA
ENDBRANCH   7   8
BRANCH   7  11
ATOM     11  O   UNL     1      12.385  24.574   3.560  0.00  0.00    -0.383 OA
ATOM     12  H   UNL     1      11.994  23.724   3.815  0.00  0.00    +0.210 HD
ENDBRANCH   7  11
ENDBRANCH   1   7
TORSDOF 5
ENDMDL
MODEL 5
REMARK VINA RESULT:      -3.9      1.715      3.273
REMARK  Name = 
REMARK  5 active torsions:
REMARK  status: ('A' for Active; 'I' for Inactive)
REMARK    1  A    between atoms: C_2  and  C_4
REMARK    2  A    between atoms: C_4  and  O_5
REMARK    3  A    between atoms: C_4  and  C_6
REMARK    4  A    between atoms: C_6  and  O_7
REMARK    5  A    between atoms: C_6  and  C_8
REMARK                            x       y       z     vdW  Elec       q    Type
REMARK                         _______ _______ _______ _____ _____    ______ ____
ROOT
ATOM      1  C   UNL     1      15.182  23.533   5.791  0.00  0.00    +0.194 C 
ENDROOT
BRANCH   1   3
ATOM      2  O   UNL     1      15.092  22.139   3.858  0.00  0.00    -0.547 OA
ATOM      3  C   UNL     1      15.303  22.136   5.196  0.00  0.00    +0.073 C 
ATOM      4  O   UNL     1      15.570  21.099   5.780  0.00  0.00    -0.547 OA
ENDBRANCH   1   3
BRANCH   1   5
ATOM      5  O   UNL     1      15.348  24.493   4.742  0.00  0.00    -0.383 OA
ATOM      6  H   UNL     1      14.541  24.527   4.205  0.00  0.00    +0.210 HD
ENDBRANCH   1   5
BRANCH   1   7
ATOM      7  C   UNL     1      13.818  23.683   6.466  0.00  0.00    +0.194 C 
BRANCH   7   8
ATOM      8  C   UNL     1      12.888  24.411   5.508  0.00  0.00    +0.073 C 
ATOM      9  O   UNL     1      12.748  25.723   5.802  0.00  0.00    -0.547 OA
ATOM     10  O   UNL     1      12.305  23.935   4.545  0.00  0.00    -0.547 OA
ENDBRANCH   7   8
BRANCH   7  11
ATOM     11  O   UNL     1      13.914  24.445   7.675  0.00  0.00    -0.383 OA
ATOM     12  H   UNL     1      13.165  24.231   8.254  0.00  0.00    +0.210 HD
ENDBRANCH   7  11
ENDBRANCH   1   7
TORSDOF 5
ENDMDL
MODEL 6
REMARK VINA RESULT:      -3.8      3.151      3.873
REMARK  Name = 
REMARK  5 active torsions:
REMARK  status: ('A' for Active; 'I' for Inactive)
REMARK    1  A    between atoms: C_2  and  C_4
REMARK    2  A    between atoms: C_4  and  O_5
REMARK    3  A    between atoms: C_4  and  C_6
REMARK    4  A    between atoms: C_6  and  O_7
REMARK    5  A    between atoms: C_6  and  C_8
REMARK                            x       y       z     vdW  Elec       q    Type
REMARK                         _______ _______ _______ _____ _____    ______ ____
ROOT
ATOM      1  C   UNL     1      12.831  24.522   6.483  0.00  0.00    +0.194 C 
ENDROOT
BRANCH   1   3
ATOM      2  O   UNL     1      11.108  25.977   7.257  0.00  0.00    -0.547 OA
ATOM      3  C   UNL     1      12.342  25.497   7.546  0.00  0.00    +0.073 C 
ATOM      4  O   UNL     1      12.919  25.840   8.564  0.00  0.00    -0.547 OA
ENDBRANCH   1   3
BRANCH   1   5
ATOM      5  O   UNL     1      11.948  23.395   6.454  0.00  0.00    -0.383 OA
ATOM      6  H   UNL     1      11.644  23.200   7.354  0.00  0.00    +0.210 HD
ENDBRANCH   1   5
BRANCH   1   7
ATOM      7  C   UNL     1      12.873  25.226   5.125  0.00  0.00    +0.194 C 
BRANCH   7   8
ATOM      8  C   UNL     1      11.983  24.457   4.161  0.00  0.00    +0.073 C 
ATOM      9  O   UNL     1      10.734  24.966   4.075  0.00  0.00    -0.547 OA
ATOM     10  O   UNL     1      12.295  23.486   3.488  0.00  0.00    -0.547 OA
ENDBRANCH   7   8
BRANCH   7  11
ATOM     11  O   UNL     1      14.202  25.256   4.593  0.00  0.00    -0.383 OA
ATOM     12  H   UNL     1      14.742  25.879   5.105  0.00  0.00    +0.210 HD
ENDBRANCH   7  11
ENDBRANCH   1   7
TORSDOF 5
ENDMDL
MODEL 7
REMARK VINA RESULT:      -3.8      1.453      2.891
REMARK  Name = 
REMARK  5 active torsions:
REMARK  status: ('A' for Active; 'I' for Inactive)
REMARK    1  A    between atoms: C_2  and  C_4
REMARK    2  A    between atoms: C_4  and  O_5
REMARK    3  A    between atoms: C_4  and  C_6
REMARK    4  A    between atoms: C_6  and  O_7
REMARK    5  A    between atoms: C_6  and  C_8
REMARK                            x       y       z     vdW  Elec       q    Type
REMARK                         _______ _______ _______ _____ _____    ______ ____
ROOT
ATOM      1  C   UNL     1      15.181  22.565   4.242  0.00  0.00    +0.194 C 
ENDROOT
BRANCH   1   3
ATOM      2  O   UNL     1      16.147  20.391   4.404  0.00  0.00    -0.547 OA
ATOM      3  C   UNL     1      15.586  21.391   5.125  0.00  0.00    +0.073 C 
ATOM      4  O   UNL     1      15.471  21.295   6.335  0.00  0.00    -0.547 OA
ENDBRANCH   1   3
BRANCH   1   5
ATOM      5  O   UNL     1      14.440  22.063   3.124  0.00  0.00    -0.383 OA
ATOM      6  H   UNL     1      14.799  21.201   2.861  0.00  0.00    +0.210 HD
ENDBRANCH   1   5
BRANCH   1   7
ATOM      7  C   UNL     1      14.345  23.552   5.060  0.00  0.00    +0.194 C 
BRANCH   7   8
ATOM      8  C   UNL     1      12.876  23.298   4.759  0.00  0.00    +0.073 C 
ATOM      9  O   UNL     1      12.340  24.221   3.930  0.00  0.00    -0.547 OA
ATOM     10  O   UNL     1      12.191  22.374   5.171  0.00  0.00    -0.547 OA
ENDBRANCH   7   8
BRANCH   7  11
ATOM     11  O   UNL     1      14.653  24.908   4.715  0.00  0.00    -0.383 OA
ATOM     12  H   UNL     1      14.343  25.091   3.813  0.00  0.00    +0.210 HD
ENDBRANCH   7  11
ENDBRANCH   1   7
TORSDOF 5
ENDMDL
MODEL 8
REMARK VINA RESULT:      -3.8      2.965      4.139
REMARK  Name = 
REMARK  5 active torsions:
REMARK  status: ('A' for Active; 'I' for Inactive)
REMARK    1  A    between atoms: C_2  and  C_4
REMARK    2  A    between atoms: C_4  and  O_5
REMARK    3  A    between atoms: C_4  and  C_6
REMARK    4  A    between atoms: C_6  and  O_7
REMARK    5  A    between atoms: C_6  and  C_8
REMARK                            x       y       z     vdW  Elec       q    Type
REMARK                         _______ _______ _______ _____ _____    ______ ____
ROOT
ATOM      1  C   UNL     1      12.634  25.533   6.350  0.00  0.00    +0.194 C 
ENDROOT
BRANCH   1   3
ATOM      2  O   UNL     1      10.433  26.138   5.661  0.00  0.00    -0.547 OA
ATOM      3  C   UNL     1      11.135  25.281   6.441  0.00  0.00    +0.073 C 
ATOM      4  O   UNL     1      10.562  24.425   7.095  0.00  0.00    -0.547 OA
ENDBRANCH   1   3
BRANCH   1   5
ATOM      5  O   UNL     1      13.227  25.235   7.618  0.00  0.00    -0.383 OA
ATOM      6  H   UNL     1      13.346  26.057   8.120  0.00  0.00    +0.210 HD
ENDBRANCH   1   5
BRANCH   1   7
ATOM      7  C   UNL     1      13.231  24.661   5.243  0.00  0.00    +0.194 C 
BRANCH   7   8
ATOM      8  C   UNL     1      13.895  23.455   5.890  0.00  0.00    +0.073 C 
ATOM      9  O   UNL     1      15.242  23.554   5.935  0.00  0.00    -0.547 OA
ATOM     10  O   UNL     1      13.338  22.472   6.357  0.00  0.00    -0.547 OA
ENDBRANCH   7   8
BRANCH   7  11
ATOM     11  O   UNL     1      14.219  25.375   4.491  0.00  0.00    -0.383 OA
ATOM     12  H   UNL     1      14.300  24.982   3.607  0.00  0.00    +0.210 HD
ENDBRANCH   7  11
ENDBRANCH   1   7
TORSDOF 5
ENDMDL
MODEL 9
REMARK VINA RESULT:      -3.8      1.495      2.275
REMARK  Name = 
REMARK  5 active torsions:
REMARK  status: ('A' for Active; 'I' for Inactive)
REMARK    1  A    between atoms: C_2  and  C_4
REMARK    2  A    between atoms: C_4  and  O_5
REMARK    3  A    between atoms: C_4  and  C_6
REMARK    4  A    between atoms: C_6  and  O_7
REMARK    5  A    between atoms: C_6  and  C_8
REMARK                            x       y       z     vdW  Elec       q    Type
REMARK                         _______ _______ _______ _____ _____    ______ ____
ROOT
ATOM      1  C   UNL     1      15.539  23.225   6.795  0.00  0.00    +0.194 C 
ENDROOT
BRANCH   1   3
ATOM      2  O   UNL     1      13.792  24.162   8.120  0.00  0.00    -0.547 OA
ATOM      3  C   UNL     1      14.724  23.180   8.081  0.00  0.00    +0.073 C 
ATOM      4  O   UNL     1      14.825  22.382   8.998  0.00  0.00    -0.547 OA
ENDBRANCH   1   3
BRANCH   1   5
ATOM      5  O   UNL     1      16.171  21.954   6.608  0.00  0.00    -0.383 OA
ATOM      6  H   UNL     1      16.453  21.867   5.684  0.00  0.00    +0.210 HD
ENDBRANCH   1   5
BRANCH   1   7
ATOM      7  C   UNL     1      14.619  23.563   5.620  0.00  0.00    +0.194 C 
BRANCH   7   8
ATOM      8  C   UNL     1      14.414  22.302   4.795  0.00  0.00    +0.073 C 
ATOM      9  O   UNL     1      13.430  21.510   5.276  0.00  0.00    -0.547 OA
ATOM     10  O   UNL     1      15.022  21.977   3.786  0.00  0.00    -0.547 OA
ENDBRANCH   7   8
BRANCH   7  11
ATOM     11  O   UNL     1      15.193  24.570   4.778  0.00  0.00    -0.383 OA
ATOM     12  H   UNL     1      14.865  24.460   3.872  0.00  0.00    +0.210 HD
ENDBRANCH   7  11
ENDBRANCH   1   7
TORSDOF 5
ENDMDL
