          AutoDock 4.2 Release 4.2.6   
         (C) 1989-2012 The Scripps Research Institute
        AutoDock comes with ABSOLUTELY NO WARRANTY.
        AutoDock is free software, and you are welcome
        to redistribute it under certain conditions;
        for details type 'autodock4 -C'

                     main.cc  $Revision: 1.213 $

                   Compiled on Dec 11 2024 at 15:52:35


This file was created at:			4:18 13" p.m., 09/11/2026
                   on host:		"VP"
Current Working Directory = "/home/vishishtaapandit28/docking-pipeline-project/results/3BH4/ad4_grids"

      ________________________________________________________________

                   SETTING UP DEFAULT PARAMETER LIBRARY
      ________________________________________________________________


Random number generator was seeded with values 66511, 1789123693.
Docking parameter file (DPF) used for this docking:		oxalic_acid.dpf
DPF> autodock_parameter_version 4.2

	Autodock parameter version 4.2.
DPF> outlev 1

Output Level = 1  ADT-COMPATIBLE OUTPUT DURING DOCKING.
DPF> intelec

Electrostatic energies will be calculated for all non-bonds between moving atoms.
DPF> seed pid time

Random number generator was seeded with values 66511, 1789123693.
DPF> ligand_types C HD OA

DPF> fld receptor.maps.fld

Opening Grid Map Dimensions file:		receptor.maps.fld
Grid Point Spacing =				0.375 Angstroms

Even Number of User-specified Grid Points =	54 x-points
						54 y-points
						54 z-points

Coordinates of Central Grid Point of Maps =	(53.838, 11.958, 13.914)
Macromolecule file used to create Grid Maps =	receptor.pdbqt
Grid Parameter file used to create Grid Maps =	receptor.gpf
Minimum coordinates in grid = (43.713, 1.833, 3.789)
Maximum coordinates in grid = (63.963, 22.083, 24.039)

DPF> map receptor.C.map

DPF> map receptor.HD.map

DPF> map receptor.OA.map

DPF> elecmap receptor.e.map

DPF> desolvmap receptor.d.map

DPF> move oxalic_acid.pdbqt

1,4-interactions will be _ignored_ in the non-bonded internal energy calculation.

Ligand PDBQT file = "oxalic_acid.pdbqt"

INPUT LIGAND PDBQT FILE:
________________________

INPUT-LIGAND-PDBQT: REMARK SMILES O=C(O)C(=O)O
INPUT-LIGAND-PDBQT: REMARK SMILES IDX 2 1 1 2 3 3 4 5 5 6 6 7
INPUT-LIGAND-PDBQT: REMARK H PARENT 3 4 6 8
INPUT-LIGAND-PDBQT: ROOT
INPUT-LIGAND-PDBQT: ATOM      1  C   UNL     1       2.500   0.066  -0.106  1.00  0.00    +0.414 C 
INPUT-LIGAND-PDBQT: ATOM      2  O   UNL     1       3.194   1.023  -0.398  1.00  0.00    -0.238 OA
INPUT-LIGAND-PDBQT: ENDROOT
INPUT-LIGAND-PDBQT: BRANCH   1   3
INPUT-LIGAND-PDBQT: ATOM      3  O   UNL     1       1.160   0.011  -0.090  1.00  0.00    -0.473 OA
INPUT-LIGAND-PDBQT: ATOM      4  H   UNL     1       0.868  -0.890   0.186  1.00  0.00    +0.297 HD
INPUT-LIGAND-PDBQT: ENDBRANCH   1   3
INPUT-LIGAND-PDBQT: BRANCH   1   5
INPUT-LIGAND-PDBQT: ATOM      5  C   UNL     1       3.140  -1.270   0.303  1.00  0.00    +0.414 C 
INPUT-LIGAND-PDBQT: ATOM      6  O   UNL     1       2.446  -2.228   0.596  1.00  0.00    -0.238 OA
INPUT-LIGAND-PDBQT: BRANCH   5   7
INPUT-LIGAND-PDBQT: ATOM      7  O   UNL     1       4.480  -1.215   0.288  1.00  0.00    -0.473 OA
INPUT-LIGAND-PDBQT: ATOM      8  H   UNL     1       4.772  -0.314   0.012  1.00  0.00    +0.297 HD
INPUT-LIGAND-PDBQT: ENDBRANCH   5   7
INPUT-LIGAND-PDBQT: ENDBRANCH   1   5
INPUT-LIGAND-PDBQT: TORSDOF 3
________________________________________________________________________________

Total charge on ligand                               =	+0.000 e
REMARK SMILES O=C(O)C(=O)O
REMARK SMILES IDX 2 1 1 2 3 3 4 5 5 6 6 7
REMARK H PARENT 3 4 6 8


Number of Rotatable Bonds in Small Molecule =	3 torsions
Number of atoms in ligand:  8

Number of non-hydrogen atoms in ligand:  6

Number of vibrational degrees of freedom of ligand:  18


Number of torsional degrees of freedom = 3
Estimated loss of torsional free energy upon binding = +0.8949 kcal/mol


DPF> about 2.8200000000000003 -0.602125 0.09887499999999999

Small molecule center of rotation =	(+2.820, -0.602, +0.099)

DPF> tran0 random

Initial translation =			(57.620, 14.407, 19.302) Angstroms
DPF> quat0 random

Each run will begin with a new, random initial orientation.
Initial quaternion,  (x,y,z,w) =	( -0.801, -0.402, -0.419, -0.144 ),
DPF> dihe0 random

DPF> tstep 2.0

Initial simanneal cycle, maximum translation step = +/- 2.0 Angstroms
DPF> qstep 50.0

Initial simanneal cycle, maximum quaternion angle step = +/- 50.0 deg
DPF> dstep 50.0

Initial simanneal cycle, maximum torsion angle step = +/- 50.0 deg
DPF> torsdof 3

Number of torsional degrees of freedom = 3
Free energy coefficient for torsional degrees of freedom = 0.2983, the factory default value.

Estimated loss of torsional free energy upon binding = +0.8949 kcal/mol

DPF> rmstol 2.0

Maximum RMS tolerance for conformational cluster analysis = 2.00 Angstroms
DPF> extnrg 1000.0

External grid energy (beyond grid map walls) = 1000.00

DPF> e0max 0.0 10000

Using user-specified maximum number of retries for simanneal initialization, 10000 retries.
If the simanneal initial energy is greater than e0max, 0.000,
then a new, random initial state will be created.

DPF> ga_pop_size 150

A population of 150 individuals will be used
DPF> ga_num_evals 2500000

There will be at most 2500000 function evaluations used.
DPF> ga_num_generations 27000

The GA will run for at most 27000 generations.
DPF> ga_elitism 1

The 1 best will be preserved each GA generation.
DPF> ga_mutation_rate 0.02

The mutation rate is 0.020000.
DPF> ga_crossover_rate 0.8

The crossover rate is 0.800000.
DPF> ga_window_size 10

The GA's selection window is 10 generations.
DPF> ga_cauchy_alpha 0.0

The alpha parameter (for the Cauchy distribution) is being set to 0.000000.
DPF> ga_cauchy_beta 1.0

The beta parameter (for the Cauchy distribution) is being set to 1.000000.
DPF> set_ga

DPF> sw_max_its 300

Solis & Wets algorithms will perform at most 300 iterations.
DPF> sw_max_succ 4

Solis & Wets algorithms expand rho every 4 in a row successes.
DPF> sw_max_fail 4

Solis & Wets algorithms contract rho every 4 in a row failures.
DPF> sw_rho 1.0

rho is set to 1.000000.
DPF> sw_lb_rho 0.01

rho will never get smaller than 0.010000.
DPF> ls_search_freq 0.06

Local search will be performed with frequency 0.060000.
DPF> set_psw1

Creating a new Local Search object using the pseudo-Solis-Wets algorithm (pSW1) with the current settings.

DPF> unbound_model bound

DPF> ga_run 10

centering ligand on specified point: 2.820 -0.602 0.099
Furthest true ligand atom from "about" center is 1.975 Angstroms (maxrad).
Number of requested GA dockings = 10 runs
Unbound model to be used is 'same as bound' [AutoDock 4.2 default].

	BEGINNING GENETIC ALGORITHM DOCKING 1 of 10
Run: 1 Seed: 1853101851 223638990 [ Run 1 of 10 GA/GALS ]
Beginning LAMARCKIAN GENETIC ALGORITHM (LGA), with a maximum of 2500000 energy evaluations.

Final-Value: -4.749


	FINAL GENETIC ALGORITHM DOCKED STATE
	_______________________________________________


Detailed state:  trans 54.834 11.137 22.067 quatxyzw 0.232695 0.875821 0.417057 -0.069678 center 2.820 -0.602 0.099 ntor 3 -16.2930 -37.9881 179.9743
State:	 54.834  11.137  22.067   0.233  0.878  0.418 -172.009    -16.29  -37.99  179.97

DOCKED: MODEL        1
DOCKED: USER    Run = 1
DOCKED: USER    DPF = oxalic_acid.dpf
DOCKED: USER  
DOCKED: USER    Estimated Free Energy of Binding    =   -2.21 kcal/mol  [=(1)+(2)+(3)-(4)]
DOCKED: USER    Estimated Inhibition Constant, Ki   =   24.19 mM (millimolar)  [Temperature = 298.15 K]
DOCKED: USER    
DOCKED: USER    (1) Final Intermolecular Energy     =   -3.10 kcal/mol
DOCKED: USER        vdW + Hbond + desolv Energy     =   -2.89 kcal/mol
DOCKED: USER        Electrostatic Energy            =   -0.21 kcal/mol
DOCKED: USER    (2) Final Total Internal Energy     =   -1.65 kcal/mol
DOCKED: USER    (3) Torsional Free Energy           =   +0.89 kcal/mol
DOCKED: USER    (4) Unbound System's Energy  [=(2)] =   -1.65 kcal/mol
DOCKED: USER    
DOCKED: USER    
DOCKED: USER    NEWDPF move oxalic_acid.pdbqt
DOCKED: USER    NEWDPF about 2.820000 -0.602125 0.098875
DOCKED: USER    NEWDPF tran0 54.833544 11.137359 22.067101
DOCKED: USER    NEWDPF quaternion0 0.232695 0.875821 0.417057 -0.069678
DOCKED: USER    NEWDPF axisangle0 0.233262 0.877954 0.418073 -172.008972
DOCKED: USER    NEWDPF quat0 0.233262 0.877954 0.418073 -172.008972
DOCKED: USER    NEWDPF dihe0 -16.29 -37.99 179.97 
DOCKED: USER  keepresnum = 1 
DOCKED: USER  
DOCKED: REMARK SMILES O=C(O)C(=O)O
DOCKED: REMARK SMILES IDX 2 1 1 2 3 3 4 5 5 6 6 7
DOCKED: REMARK H PARENT 3 4 6 8
DOCKED: USER                              x       y       z     vdW  Elec       q    Type
DOCKED: USER                           _______ _______ _______ _____ _____    ______ ____
DOCKED: ROOT
DOCKED: ATOM      1  C   UNL     1      55.285  11.209  22.685 -0.11 -0.13    +0.414 C 
DOCKED: ATOM      2  O   UNL     1      54.915  11.848  23.653 -0.15 +0.09    -0.238 OA
DOCKED: ENDROOT
DOCKED: BRANCH   1   3
DOCKED: ATOM      3  O   UNL     1      56.452  10.566  22.537 -0.44 +0.15    -0.473 OA
DOCKED: ATOM      4  H   UNL     1      56.387   9.928  21.787 -0.42 -0.19    +0.297 HD
DOCKED: ENDBRANCH   1   3
DOCKED: BRANCH   1   5
DOCKED: ATOM      5  C   UNL     1      54.382  11.066  21.449 -0.15 -0.09    +0.414 C 
DOCKED: ATOM      6  O   UNL     1      53.282  11.589  21.419 -0.91 +0.03    -0.238 OA
DOCKED: BRANCH   5   7
DOCKED: ATOM      7  O   UNL     1      54.956  10.328  20.487 -0.31 +0.15    -0.473 OA
DOCKED: ATOM      8  H   UNL     1      55.921  10.529  20.446 -0.40 -0.21    +0.297 HD
DOCKED: ENDBRANCH   5   7
DOCKED: ENDBRANCH   1   5
DOCKED: TORSDOF 3
DOCKED: TER
DOCKED: ENDMDL
________________________________________________________________________________


	BEGINNING GENETIC ALGORITHM DOCKING 2 of 10
Run: 2 Seed: 1474765096 1333505783 [ Run 2 of 10 GA/GALS ]
Beginning LAMARCKIAN GENETIC ALGORITHM (LGA), with a maximum of 2500000 energy evaluations.

Final-Value: -4.748


	FINAL GENETIC ALGORITHM DOCKED STATE
	_______________________________________________


Detailed state:  trans 54.800 11.145 22.107 quatxyzw 0.188110 -0.391058 0.745990 -0.505160 center 2.820 -0.602 0.099 ntor 3 12.9646 38.1274 -176.8010
State:	 54.800  11.145  22.107   0.218 -0.453  0.864 -119.316     12.96   38.13 -176.80

DOCKED: MODEL        2
DOCKED: USER    Run = 2
DOCKED: USER    DPF = oxalic_acid.dpf
DOCKED: USER  
DOCKED: USER    Estimated Free Energy of Binding    =   -2.20 kcal/mol  [=(1)+(2)+(3)-(4)]
DOCKED: USER    Estimated Inhibition Constant, Ki   =   24.45 mM (millimolar)  [Temperature = 298.15 K]
DOCKED: USER    
DOCKED: USER    (1) Final Intermolecular Energy     =   -3.09 kcal/mol
DOCKED: USER        vdW + Hbond + desolv Energy     =   -2.93 kcal/mol
DOCKED: USER        Electrostatic Energy            =   -0.16 kcal/mol
DOCKED: USER    (2) Final Total Internal Energy     =   -1.65 kcal/mol
DOCKED: USER    (3) Torsional Free Energy           =   +0.89 kcal/mol
DOCKED: USER    (4) Unbound System's Energy  [=(2)] =   -1.65 kcal/mol
DOCKED: USER    
DOCKED: USER    
DOCKED: USER    NEWDPF move oxalic_acid.pdbqt
DOCKED: USER    NEWDPF about 2.820000 -0.602125 0.098875
DOCKED: USER    NEWDPF tran0 54.799650 11.144508 22.106776
DOCKED: USER    NEWDPF quaternion0 0.188110 -0.391058 0.745990 -0.505160
DOCKED: USER    NEWDPF axisangle0 0.217966 -0.453124 0.864390 -119.315995
DOCKED: USER    NEWDPF quat0 0.217966 -0.453124 0.864390 -119.315995
DOCKED: USER    NEWDPF dihe0 12.96 38.13 -176.80 
DOCKED: USER  keepresnum = 1 
DOCKED: USER  
DOCKED: REMARK SMILES O=C(O)C(=O)O
DOCKED: REMARK SMILES IDX 2 1 1 2 3 3 4 5 5 6 6 7
DOCKED: REMARK H PARENT 3 4 6 8
DOCKED: USER                              x       y       z     vdW  Elec       q    Type
DOCKED: USER                           _______ _______ _______ _____ _____    ______ ____
DOCKED: ROOT
DOCKED: ATOM      1  C   UNL     1      54.355  10.986  21.500 -0.18 -0.09    +0.414 C 
DOCKED: ATOM      2  O   UNL     1      53.236  11.457  21.410 -0.89 +0.03    -0.238 OA
DOCKED: ENDROOT
DOCKED: BRANCH   1   3
DOCKED: ATOM      3  O   UNL     1      54.964  10.171  20.626 -0.31 +0.17    -0.473 OA
DOCKED: ATOM      4  H   UNL     1      55.770   9.781  21.041 -0.44 -0.21    +0.297 HD
DOCKED: ENDBRANCH   1   3
DOCKED: BRANCH   1   5
DOCKED: ATOM      5  C   UNL     1      55.244  11.303  22.713 -0.08 -0.13    +0.414 C 
DOCKED: ATOM      6  O   UNL     1      54.822  11.984  23.632 -0.16 +0.09    -0.238 OA
DOCKED: BRANCH   5   7
DOCKED: ATOM      7  O   UNL     1      56.463  10.754  22.605 -0.50 +0.14    -0.473 OA
DOCKED: ATOM      8  H   UNL     1      56.768  10.806  21.668 -0.38 -0.15    +0.297 HD
DOCKED: ENDBRANCH   5   7
DOCKED: ENDBRANCH   1   5
DOCKED: TORSDOF 3
DOCKED: TER
DOCKED: ENDMDL
________________________________________________________________________________


	BEGINNING GENETIC ALGORITHM DOCKING 3 of 10
Run: 3 Seed: 1645176490 1451715023 [ Run 3 of 10 GA/GALS ]
Beginning LAMARCKIAN GENETIC ALGORITHM (LGA), with a maximum of 2500000 energy evaluations.

Final-Value: -4.675


	FINAL GENETIC ALGORITHM DOCKED STATE
	_______________________________________________


Detailed state:  trans 46.537 18.427 7.158 quatxyzw 0.517519 0.616157 0.522430 0.282120 center 2.820 -0.602 0.099 ntor 3 -2.1969 -37.0726 172.4975
State:	 46.537  18.427   7.158   0.539  0.642  0.545 147.226     -2.20  -37.07  172.50

DOCKED: MODEL        3
DOCKED: USER    Run = 3
DOCKED: USER    DPF = oxalic_acid.dpf
DOCKED: USER  
DOCKED: USER    Estimated Free Energy of Binding    =   -2.16 kcal/mol  [=(1)+(2)+(3)-(4)]
DOCKED: USER    Estimated Inhibition Constant, Ki   =   26.24 mM (millimolar)  [Temperature = 298.15 K]
DOCKED: USER    
DOCKED: USER    (1) Final Intermolecular Energy     =   -3.05 kcal/mol
DOCKED: USER        vdW + Hbond + desolv Energy     =   -2.80 kcal/mol
DOCKED: USER        Electrostatic Energy            =   -0.25 kcal/mol
DOCKED: USER    (2) Final Total Internal Energy     =   -1.62 kcal/mol
DOCKED: USER    (3) Torsional Free Energy           =   +0.89 kcal/mol
DOCKED: USER    (4) Unbound System's Energy  [=(2)] =   -1.62 kcal/mol
DOCKED: USER    
DOCKED: USER    
DOCKED: USER    NEWDPF move oxalic_acid.pdbqt
DOCKED: USER    NEWDPF about 2.820000 -0.602125 0.098875
DOCKED: USER    NEWDPF tran0 46.536833 18.426967 7.157906
DOCKED: USER    NEWDPF quaternion0 0.517519 0.616157 0.522430 0.282120
DOCKED: USER    NEWDPF axisangle0 0.539432 0.642245 0.544550 147.226434
DOCKED: USER    NEWDPF quat0 0.539432 0.642245 0.544550 147.226434
DOCKED: USER    NEWDPF dihe0 -2.20 -37.07 172.50 
DOCKED: USER  keepresnum = 1 
DOCKED: USER  
DOCKED: REMARK SMILES O=C(O)C(=O)O
DOCKED: REMARK SMILES IDX 2 1 1 2 3 3 4 5 5 6 6 7
DOCKED: REMARK H PARENT 3 4 6 8
DOCKED: USER                              x       y       z     vdW  Elec       q    Type
DOCKED: USER                           _______ _______ _______ _____ _____    ______ ____
DOCKED: ROOT
DOCKED: ATOM      1  C   UNL     1      47.218  18.071   7.169 -0.24 +0.12    +0.414 C 
DOCKED: ATOM      2  O   UNL     1      47.842  17.958   8.208 -0.82 -0.19    -0.238 OA
DOCKED: ENDROOT
DOCKED: BRANCH   1   3
DOCKED: ATOM      3  O   UNL     1      47.579  17.631   5.955 -0.13 +0.09    -0.473 OA
DOCKED: ATOM      4  H   UNL     1      46.865  17.831   5.303 -0.32 -0.13    +0.297 HD
DOCKED: ENDBRANCH   1   3
DOCKED: BRANCH   1   5
DOCKED: ATOM      5  C   UNL     1      45.856  18.782   7.147 -0.14 +0.13    +0.414 C 
DOCKED: ATOM      6  O   UNL     1      45.315  19.123   8.185 -0.62 -0.16    -0.238 OA
DOCKED: BRANCH   5   7
DOCKED: ATOM      7  O   UNL     1      45.394  18.953   5.899 -0.10 +0.05    -0.473 OA
DOCKED: ATOM      8  H   UNL     1      46.144  19.159   5.293 -0.44 -0.16    +0.297 HD
DOCKED: ENDBRANCH   5   7
DOCKED: ENDBRANCH   1   5
DOCKED: TORSDOF 3
DOCKED: TER
DOCKED: ENDMDL
________________________________________________________________________________


	BEGINNING GENETIC ALGORITHM DOCKING 4 of 10
Run: 4 Seed: 422411984 1497203679 [ Run 4 of 10 GA/GALS ]
Beginning LAMARCKIAN GENETIC ALGORITHM (LGA), with a maximum of 2500000 energy evaluations.

Final-Value: -4.836


	FINAL GENETIC ALGORITHM DOCKED STATE
	_______________________________________________


Detailed state:  trans 54.849 11.207 22.182 quatxyzw -0.128108 0.446736 -0.673466 0.574856 center 2.820 -0.602 0.099 ntor 3 -4.4930 15.5187 -153.6295
State:	 54.849  11.207  22.182  -0.157  0.546 -0.823 109.821     -4.49   15.52 -153.63

DOCKED: MODEL        4
DOCKED: USER    Run = 4
DOCKED: USER    DPF = oxalic_acid.dpf
DOCKED: USER  
DOCKED: USER    Estimated Free Energy of Binding    =   -2.31 kcal/mol  [=(1)+(2)+(3)-(4)]
DOCKED: USER    Estimated Inhibition Constant, Ki   =   20.17 mM (millimolar)  [Temperature = 298.15 K]
DOCKED: USER    
DOCKED: USER    (1) Final Intermolecular Energy     =   -3.21 kcal/mol
DOCKED: USER        vdW + Hbond + desolv Energy     =   -3.02 kcal/mol
DOCKED: USER        Electrostatic Energy            =   -0.19 kcal/mol
DOCKED: USER    (2) Final Total Internal Energy     =   -1.63 kcal/mol
DOCKED: USER    (3) Torsional Free Energy           =   +0.89 kcal/mol
DOCKED: USER    (4) Unbound System's Energy  [=(2)] =   -1.63 kcal/mol
DOCKED: USER    
DOCKED: USER    
DOCKED: USER    NEWDPF move oxalic_acid.pdbqt
DOCKED: USER    NEWDPF about 2.820000 -0.602125 0.098875
DOCKED: USER    NEWDPF tran0 54.848812 11.207321 22.182206
DOCKED: USER    NEWDPF quaternion0 -0.128108 0.446736 -0.673466 0.574856
DOCKED: USER    NEWDPF axisangle0 -0.156562 0.545962 -0.823052 109.820938
DOCKED: USER    NEWDPF quat0 -0.156562 0.545962 -0.823052 109.820938
DOCKED: USER    NEWDPF dihe0 -4.49 15.52 -153.63 
DOCKED: USER  keepresnum = 1 
DOCKED: USER  
DOCKED: REMARK SMILES O=C(O)C(=O)O
DOCKED: REMARK SMILES IDX 2 1 1 2 3 3 4 5 5 6 6 7
DOCKED: REMARK H PARENT 3 4 6 8
DOCKED: USER                              x       y       z     vdW  Elec       q    Type
DOCKED: USER                           _______ _______ _______ _____ _____    ______ ____
DOCKED: ROOT
DOCKED: ATOM      1  C   UNL     1      54.423  11.190  21.543 -0.13 -0.09    +0.414 C 
DOCKED: ATOM      2  O   UNL     1      53.459  11.924  21.418 -0.95 +0.03    -0.238 OA
DOCKED: ENDROOT
DOCKED: BRANCH   1   3
DOCKED: ATOM      3  O   UNL     1      54.877  10.290  20.657 -0.39 +0.15    -0.473 OA
DOCKED: ATOM      4  H   UNL     1      55.713   9.888  20.992 -0.44 -0.20    +0.297 HD
DOCKED: ENDBRANCH   1   3
DOCKED: BRANCH   1   5
DOCKED: ATOM      5  C   UNL     1      55.275  11.225  22.821 -0.11 -0.13    +0.414 C 
DOCKED: ATOM      6  O   UNL     1      54.792  11.586  23.880 -0.12 +0.08    -0.238 OA
DOCKED: BRANCH   5   7
DOCKED: ATOM      7  O   UNL     1      56.537  10.829  22.600 -0.50 +0.13    -0.473 OA
DOCKED: ATOM      8  H   UNL     1      56.721  10.834  21.631 -0.38 -0.15    +0.297 HD
DOCKED: ENDBRANCH   5   7
DOCKED: ENDBRANCH   1   5
DOCKED: TORSDOF 3
DOCKED: TER
DOCKED: ENDMDL
________________________________________________________________________________


	BEGINNING GENETIC ALGORITHM DOCKING 5 of 10
Run: 5 Seed: 1710656811 1973205534 [ Run 5 of 10 GA/GALS ]
Beginning LAMARCKIAN GENETIC ALGORITHM (LGA), with a maximum of 2500000 energy evaluations.

Final-Value: -4.712


	FINAL GENETIC ALGORITHM DOCKED STATE
	_______________________________________________


Detailed state:  trans 51.591 9.536 14.442 quatxyzw -0.492279 0.077362 -0.861201 -0.100048 center 2.820 -0.602 0.099 ntor 3 -37.1374 -25.7585 169.5849
State:	 51.591   9.536  14.442  -0.495  0.078 -0.866 -168.516    -37.14  -25.76  169.58

DOCKED: MODEL        5
DOCKED: USER    Run = 5
DOCKED: USER    DPF = oxalic_acid.dpf
DOCKED: USER  
DOCKED: USER    Estimated Free Energy of Binding    =   -2.13 kcal/mol  [=(1)+(2)+(3)-(4)]
DOCKED: USER    Estimated Inhibition Constant, Ki   =   27.40 mM (millimolar)  [Temperature = 298.15 K]
DOCKED: USER    
DOCKED: USER    (1) Final Intermolecular Energy     =   -3.03 kcal/mol
DOCKED: USER        vdW + Hbond + desolv Energy     =   -1.34 kcal/mol
DOCKED: USER        Electrostatic Energy            =   -1.69 kcal/mol
DOCKED: USER    (2) Final Total Internal Energy     =   -1.69 kcal/mol
DOCKED: USER    (3) Torsional Free Energy           =   +0.89 kcal/mol
DOCKED: USER    (4) Unbound System's Energy  [=(2)] =   -1.69 kcal/mol
DOCKED: USER    
DOCKED: USER    
DOCKED: USER    NEWDPF move oxalic_acid.pdbqt
DOCKED: USER    NEWDPF about 2.820000 -0.602125 0.098875
DOCKED: USER    NEWDPF tran0 51.591221 9.536031 14.442357
DOCKED: USER    NEWDPF quaternion0 -0.492279 0.077362 -0.861201 -0.100048
DOCKED: USER    NEWDPF axisangle0 -0.494761 0.077752 -0.865544 -168.516101
DOCKED: USER    NEWDPF quat0 -0.494761 0.077752 -0.865544 -168.516101
DOCKED: USER    NEWDPF dihe0 -37.14 -25.76 169.58 
DOCKED: USER  keepresnum = 1 
DOCKED: USER  
DOCKED: REMARK SMILES O=C(O)C(=O)O
DOCKED: REMARK SMILES IDX 2 1 1 2 3 3 4 5 5 6 6 7
DOCKED: REMARK H PARENT 3 4 6 8
DOCKED: USER                              x       y       z     vdW  Elec       q    Type
DOCKED: USER                           _______ _______ _______ _____ _____    ______ ____
DOCKED: ROOT
DOCKED: ATOM      1  C   UNL     1      51.637   8.976  13.918 -0.15 +0.08    +0.414 C 
DOCKED: ATOM      2  O   UNL     1      51.133   7.887  14.127 -0.10 +0.02    -0.238 OA
DOCKED: ENDROOT
DOCKED: BRANCH   1   3
DOCKED: ATOM      3  O   UNL     1      52.309   9.362  12.823 -0.14 -0.00    -0.473 OA
DOCKED: ATOM      4  H   UNL     1      52.100  10.304  12.620 -0.29 -0.12    +0.297 HD
DOCKED: ENDBRANCH   1   3
DOCKED: BRANCH   1   5
DOCKED: ATOM      5  C   UNL     1      51.545  10.096  14.966 -0.23 +0.32    +0.414 C 
DOCKED: ATOM      6  O   UNL     1      50.813   9.983  15.934 -0.35 -0.04    -0.238 OA
DOCKED: BRANCH   5   7
DOCKED: ATOM      7  O   UNL     1      52.337  11.136  14.667 +0.01 -1.97    -0.473 OA
DOCKED: ATOM      8  H   UNL     1      53.090  10.830  14.109 -0.10 +0.01    +0.297 HD
DOCKED: ENDBRANCH   5   7
DOCKED: ENDBRANCH   1   5
DOCKED: TORSDOF 3
DOCKED: TER
DOCKED: ENDMDL
________________________________________________________________________________


	BEGINNING GENETIC ALGORITHM DOCKING 6 of 10
Run: 6 Seed: 1629462861 274383133 [ Run 6 of 10 GA/GALS ]
Beginning LAMARCKIAN GENETIC ALGORITHM (LGA), with a maximum of 2500000 energy evaluations.

Final-Value: -4.789


	FINAL GENETIC ALGORITHM DOCKED STATE
	_______________________________________________


Detailed state:  trans 54.804 11.282 22.118 quatxyzw 0.219334 0.876821 0.425450 -0.045488 center 2.820 -0.602 0.099 ntor 3 -18.1893 -46.0866 -166.3585
State:	 54.804  11.282  22.118   0.220  0.878  0.426 -174.786    -18.19  -46.09 -166.36

DOCKED: MODEL        6
DOCKED: USER    Run = 6
DOCKED: USER    DPF = oxalic_acid.dpf
DOCKED: USER  
DOCKED: USER    Estimated Free Energy of Binding    =   -2.31 kcal/mol  [=(1)+(2)+(3)-(4)]
DOCKED: USER    Estimated Inhibition Constant, Ki   =   20.27 mM (millimolar)  [Temperature = 298.15 K]
DOCKED: USER    
DOCKED: USER    (1) Final Intermolecular Energy     =   -3.20 kcal/mol
DOCKED: USER        vdW + Hbond + desolv Energy     =   -3.02 kcal/mol
DOCKED: USER        Electrostatic Energy            =   -0.18 kcal/mol
DOCKED: USER    (2) Final Total Internal Energy     =   -1.58 kcal/mol
DOCKED: USER    (3) Torsional Free Energy           =   +0.89 kcal/mol
DOCKED: USER    (4) Unbound System's Energy  [=(2)] =   -1.58 kcal/mol
DOCKED: USER    
DOCKED: USER    
DOCKED: USER    NEWDPF move oxalic_acid.pdbqt
DOCKED: USER    NEWDPF about 2.820000 -0.602125 0.098875
DOCKED: USER    NEWDPF tran0 54.803567 11.282025 22.118269
DOCKED: USER    NEWDPF quaternion0 0.219334 0.876821 0.425450 -0.045488
DOCKED: USER    NEWDPF axisangle0 0.219561 0.877730 0.425891 -174.785659
DOCKED: USER    NEWDPF quat0 0.219561 0.877730 0.425891 -174.785659
DOCKED: USER    NEWDPF dihe0 -18.19 -46.09 -166.36 
DOCKED: USER  keepresnum = 1 
DOCKED: USER  
DOCKED: REMARK SMILES O=C(O)C(=O)O
DOCKED: REMARK SMILES IDX 2 1 1 2 3 3 4 5 5 6 6 7
DOCKED: REMARK H PARENT 3 4 6 8
DOCKED: USER                              x       y       z     vdW  Elec       q    Type
DOCKED: USER                           _______ _______ _______ _____ _____    ______ ____
DOCKED: ROOT
DOCKED: ATOM      1  C   UNL     1      55.268  11.360  22.726 -0.06 -0.13    +0.414 C 
DOCKED: ATOM      2  O   UNL     1      54.897  11.960  23.718 -0.15 +0.09    -0.238 OA
DOCKED: ENDROOT
DOCKED: BRANCH   1   3
DOCKED: ATOM      3  O   UNL     1      56.459  10.774  22.530 -0.48 +0.14    -0.473 OA
DOCKED: ATOM      4  H   UNL     1      56.393  10.129  21.787 -0.43 -0.18    +0.297 HD
DOCKED: ENDBRANCH   1   3
DOCKED: BRANCH   1   5
DOCKED: ATOM      5  C   UNL     1      54.339  11.204  21.511 -0.15 -0.08    +0.414 C 
DOCKED: ATOM      6  O   UNL     1      53.325  11.873  21.414 -0.92 +0.03    -0.238 OA
DOCKED: BRANCH   5   7
DOCKED: ATOM      7  O   UNL     1      54.788  10.283  20.645 -0.42 +0.14    -0.473 OA
DOCKED: ATOM      8  H   UNL     1      55.752  10.420  20.486 -0.42 -0.19    +0.297 HD
DOCKED: ENDBRANCH   5   7
DOCKED: ENDBRANCH   1   5
DOCKED: TORSDOF 3
DOCKED: TER
DOCKED: ENDMDL
________________________________________________________________________________


	BEGINNING GENETIC ALGORITHM DOCKING 7 of 10
Run: 7 Seed: 1928802043 177126418 [ Run 7 of 10 GA/GALS ]
Beginning LAMARCKIAN GENETIC ALGORITHM (LGA), with a maximum of 2500000 energy evaluations.

Final-Value: -4.822


	FINAL GENETIC ALGORITHM DOCKED STATE
	_______________________________________________


Detailed state:  trans 54.826 11.235 22.177 quatxyzw -0.197760 -0.862174 -0.462718 0.058642 center 2.820 -0.602 0.099 ntor 3 27.3571 -1.6097 -163.3168
State:	 54.826  11.235  22.177  -0.198 -0.864 -0.464 173.276     27.36   -1.61 -163.32

DOCKED: MODEL        7
DOCKED: USER    Run = 7
DOCKED: USER    DPF = oxalic_acid.dpf
DOCKED: USER  
DOCKED: USER    Estimated Free Energy of Binding    =   -2.29 kcal/mol  [=(1)+(2)+(3)-(4)]
DOCKED: USER    Estimated Inhibition Constant, Ki   =   20.86 mM (millimolar)  [Temperature = 298.15 K]
DOCKED: USER    
DOCKED: USER    (1) Final Intermolecular Energy     =   -3.19 kcal/mol
DOCKED: USER        vdW + Hbond + desolv Energy     =   -3.02 kcal/mol
DOCKED: USER        Electrostatic Energy            =   -0.16 kcal/mol
DOCKED: USER    (2) Final Total Internal Energy     =   -1.63 kcal/mol
DOCKED: USER    (3) Torsional Free Energy           =   +0.89 kcal/mol
DOCKED: USER    (4) Unbound System's Energy  [=(2)] =   -1.63 kcal/mol
DOCKED: USER    
DOCKED: USER    
DOCKED: USER    NEWDPF move oxalic_acid.pdbqt
DOCKED: USER    NEWDPF about 2.820000 -0.602125 0.098875
DOCKED: USER    NEWDPF tran0 54.826033 11.235246 22.176708
DOCKED: USER    NEWDPF quaternion0 -0.197760 -0.862174 -0.462718 0.058642
DOCKED: USER    NEWDPF axisangle0 -0.198101 -0.863660 -0.463516 173.276313
DOCKED: USER    NEWDPF quat0 -0.198101 -0.863660 -0.463516 173.276313
DOCKED: USER    NEWDPF dihe0 27.36 -1.61 -163.32 
DOCKED: USER  keepresnum = 1 
DOCKED: USER  
DOCKED: REMARK SMILES O=C(O)C(=O)O
DOCKED: REMARK SMILES IDX 2 1 1 2 3 3 4 5 5 6 6 7
DOCKED: REMARK H PARENT 3 4 6 8
DOCKED: USER                              x       y       z     vdW  Elec       q    Type
DOCKED: USER                           _______ _______ _______ _____ _____    ______ ____
DOCKED: ROOT
DOCKED: ATOM      1  C   UNL     1      55.252  11.280  22.815 -0.10 -0.13    +0.414 C 
DOCKED: ATOM      2  O   UNL     1      54.809  11.800  23.822 -0.14 +0.09    -0.238 OA
DOCKED: ENDROOT
DOCKED: BRANCH   1   3
DOCKED: ATOM      3  O   UNL     1      56.467  10.735  22.651 -0.50 +0.14    -0.473 OA
DOCKED: ATOM      4  H   UNL     1      56.730  10.791  21.702 -0.38 -0.15    +0.297 HD
DOCKED: ENDBRANCH   1   3
DOCKED: BRANCH   1   5
DOCKED: ATOM      5  C   UNL     1      54.400  11.190  21.539 -0.14 -0.09    +0.414 C 
DOCKED: ATOM      6  O   UNL     1      53.407  11.884  21.405 -0.94 +0.03    -0.238 OA
DOCKED: BRANCH   5   7
DOCKED: ATOM      7  O   UNL     1      54.886  10.295  20.667 -0.39 +0.15    -0.473 OA
DOCKED: ATOM      8  H   UNL     1      55.715   9.898  21.026 -0.45 -0.20    +0.297 HD
DOCKED: ENDBRANCH   5   7
DOCKED: ENDBRANCH   1   5
DOCKED: TORSDOF 3
DOCKED: TER
DOCKED: ENDMDL
________________________________________________________________________________


	BEGINNING GENETIC ALGORITHM DOCKING 8 of 10
Run: 8 Seed: 1749937025 401031518 [ Run 8 of 10 GA/GALS ]
Beginning LAMARCKIAN GENETIC ALGORITHM (LGA), with a maximum of 2500000 energy evaluations.

Final-Value: -4.623


	FINAL GENETIC ALGORITHM DOCKED STATE
	_______________________________________________


Detailed state:  trans 46.542 18.335 6.961 quatxyzw 0.552650 0.634300 0.475864 0.256507 center 2.820 -0.602 0.099 ntor 3 38.6286 -39.3167 -180.0000
State:	 46.542  18.335   6.961   0.572  0.656  0.492 150.274     38.63  -39.32 -180.00

DOCKED: MODEL        8
DOCKED: USER    Run = 8
DOCKED: USER    DPF = oxalic_acid.dpf
DOCKED: USER  
DOCKED: USER    Estimated Free Energy of Binding    =   -2.21 kcal/mol  [=(1)+(2)+(3)-(4)]
DOCKED: USER    Estimated Inhibition Constant, Ki   =   23.96 mM (millimolar)  [Temperature = 298.15 K]
DOCKED: USER    
DOCKED: USER    (1) Final Intermolecular Energy     =   -3.11 kcal/mol
DOCKED: USER        vdW + Hbond + desolv Energy     =   -2.77 kcal/mol
DOCKED: USER        Electrostatic Energy            =   -0.33 kcal/mol
DOCKED: USER    (2) Final Total Internal Energy     =   -1.52 kcal/mol
DOCKED: USER    (3) Torsional Free Energy           =   +0.89 kcal/mol
DOCKED: USER    (4) Unbound System's Energy  [=(2)] =   -1.52 kcal/mol
DOCKED: USER    
DOCKED: USER    
DOCKED: USER    NEWDPF move oxalic_acid.pdbqt
DOCKED: USER    NEWDPF about 2.820000 -0.602125 0.098875
DOCKED: USER    NEWDPF tran0 46.542044 18.334895 6.960871
DOCKED: USER    NEWDPF quaternion0 0.552650 0.634300 0.475864 0.256507
DOCKED: USER    NEWDPF axisangle0 0.571780 0.656256 0.492336 150.274228
DOCKED: USER    NEWDPF quat0 0.571780 0.656256 0.492336 150.274228
DOCKED: USER    NEWDPF dihe0 38.63 -39.32 -180.00 
DOCKED: USER  keepresnum = 1 
DOCKED: USER  
DOCKED: REMARK SMILES O=C(O)C(=O)O
DOCKED: REMARK SMILES IDX 2 1 1 2 3 3 4 5 5 6 6 7
DOCKED: REMARK H PARENT 3 4 6 8
DOCKED: USER                              x       y       z     vdW  Elec       q    Type
DOCKED: USER                           _______ _______ _______ _____ _____    ______ ____
DOCKED: ROOT
DOCKED: ATOM      1  C   UNL     1      47.215  17.964   6.987 -0.24 +0.08    +0.414 C 
DOCKED: ATOM      2  O   UNL     1      47.882  17.961   8.006 -0.81 -0.17    -0.238 OA
DOCKED: ENDROOT
DOCKED: BRANCH   1   3
DOCKED: ATOM      3  O   UNL     1      47.511  17.370   5.822 -0.12 +0.11    -0.473 OA
DOCKED: ATOM      4  H   UNL     1      47.236  17.950   5.074 -0.34 -0.18    +0.297 HD
DOCKED: ENDBRANCH   1   3
DOCKED: BRANCH   1   5
DOCKED: ATOM      5  C   UNL     1      45.869  18.705   6.935 -0.15 +0.09    +0.414 C 
DOCKED: ATOM      6  O   UNL     1      45.448  19.300   7.911 -0.59 -0.17    -0.238 OA
DOCKED: BRANCH   5   7
DOCKED: ATOM      7  O   UNL     1      45.279  18.597   5.735 -0.08 +0.08    -0.473 OA
DOCKED: ATOM      8  H   UNL     1      45.959  18.662   5.024 -0.44 -0.17    +0.297 HD
DOCKED: ENDBRANCH   5   7
DOCKED: ENDBRANCH   1   5
DOCKED: TORSDOF 3
DOCKED: TER
DOCKED: ENDMDL
________________________________________________________________________________


	BEGINNING GENETIC ALGORITHM DOCKING 9 of 10
Run: 9 Seed: 1700087031 2086079533 [ Run 9 of 10 GA/GALS ]
Beginning LAMARCKIAN GENETIC ALGORITHM (LGA), with a maximum of 2500000 energy evaluations.

Final-Value: -4.827


	FINAL GENETIC ALGORITHM DOCKED STATE
	_______________________________________________


Detailed state:  trans 54.835 11.196 22.188 quatxyzw 0.116225 -0.449749 0.663478 -0.586527 center 2.820 -0.602 0.099 ntor 3 -10.7676 19.3791 -153.0023
State:	 54.835  11.196  22.188   0.143 -0.555  0.819 -108.178    -10.77   19.38 -153.00

DOCKED: MODEL        9
DOCKED: USER    Run = 9
DOCKED: USER    DPF = oxalic_acid.dpf
DOCKED: USER  
DOCKED: USER    Estimated Free Energy of Binding    =   -2.32 kcal/mol  [=(1)+(2)+(3)-(4)]
DOCKED: USER    Estimated Inhibition Constant, Ki   =   19.89 mM (millimolar)  [Temperature = 298.15 K]
DOCKED: USER    
DOCKED: USER    (1) Final Intermolecular Energy     =   -3.22 kcal/mol
DOCKED: USER        vdW + Hbond + desolv Energy     =   -3.04 kcal/mol
DOCKED: USER        Electrostatic Energy            =   -0.18 kcal/mol
DOCKED: USER    (2) Final Total Internal Energy     =   -1.61 kcal/mol
DOCKED: USER    (3) Torsional Free Energy           =   +0.89 kcal/mol
DOCKED: USER    (4) Unbound System's Energy  [=(2)] =   -1.61 kcal/mol
DOCKED: USER    
DOCKED: USER    
DOCKED: USER    NEWDPF move oxalic_acid.pdbqt
DOCKED: USER    NEWDPF about 2.820000 -0.602125 0.098875
DOCKED: USER    NEWDPF tran0 54.834669 11.195836 22.188227
DOCKED: USER    NEWDPF quaternion0 0.116225 -0.449749 0.663478 -0.586527
DOCKED: USER    NEWDPF axisangle0 0.143500 -0.555294 0.819180 -108.178055
DOCKED: USER    NEWDPF quat0 0.143500 -0.555294 0.819180 -108.178055
DOCKED: USER    NEWDPF dihe0 -10.77 19.38 -153.00 
DOCKED: USER  keepresnum = 1 
DOCKED: USER  
DOCKED: REMARK SMILES O=C(O)C(=O)O
DOCKED: REMARK SMILES IDX 2 1 1 2 3 3 4 5 5 6 6 7
DOCKED: REMARK H PARENT 3 4 6 8
DOCKED: USER                              x       y       z     vdW  Elec       q    Type
DOCKED: USER                           _______ _______ _______ _____ _____    ______ ____
DOCKED: ROOT
DOCKED: ATOM      1  C   UNL     1      54.412  11.192  21.546 -0.13 -0.09    +0.414 C 
DOCKED: ATOM      2  O   UNL     1      53.479  11.963  21.412 -0.95 +0.03    -0.238 OA
DOCKED: ENDROOT
DOCKED: BRANCH   1   3
DOCKED: ATOM      3  O   UNL     1      54.837  10.273  20.667 -0.40 +0.15    -0.473 OA
DOCKED: ATOM      4  H   UNL     1      55.708   9.912  20.958 -0.44 -0.20    +0.297 HD
DOCKED: ENDBRANCH   1   3
DOCKED: BRANCH   1   5
DOCKED: ATOM      5  C   UNL     1      55.257  11.200  22.830 -0.12 -0.13    +0.414 C 
DOCKED: ATOM      6  O   UNL     1      54.778  11.572  23.887 -0.12 +0.08    -0.238 OA
DOCKED: BRANCH   5   7
DOCKED: ATOM      7  O   UNL     1      56.508  10.767  22.616 -0.49 +0.13    -0.473 OA
DOCKED: ATOM      8  H   UNL     1      56.720  10.827  21.654 -0.38 -0.15    +0.297 HD
DOCKED: ENDBRANCH   5   7
DOCKED: ENDBRANCH   1   5
DOCKED: TORSDOF 3
DOCKED: TER
DOCKED: ENDMDL
________________________________________________________________________________


	BEGINNING GENETIC ALGORITHM DOCKING 10 of 10
Run: 10 Seed: 286773670 968573643 [ Run 10 of 10 GA/GALS ]
Beginning LAMARCKIAN GENETIC ALGORITHM (LGA), with a maximum of 2500000 energy evaluations.

Final-Value: -4.838


	FINAL GENETIC ALGORITHM DOCKED STATE
	_______________________________________________


Detailed state:  trans 54.856 11.196 22.198 quatxyzw -0.148974 -0.842048 -0.517571 0.029713 center 2.820 -0.602 0.099 ntor 3 14.8558 2.8035 -154.3278
State:	 54.856  11.196  22.198  -0.149 -0.842 -0.518 176.595     14.86    2.80 -154.33

DOCKED: MODEL       10
DOCKED: USER    Run = 10
DOCKED: USER    DPF = oxalic_acid.dpf
DOCKED: USER  
DOCKED: USER    Estimated Free Energy of Binding    =   -2.29 kcal/mol  [=(1)+(2)+(3)-(4)]
DOCKED: USER    Estimated Inhibition Constant, Ki   =   20.97 mM (millimolar)  [Temperature = 298.15 K]
DOCKED: USER    
DOCKED: USER    (1) Final Intermolecular Energy     =   -3.18 kcal/mol
DOCKED: USER        vdW + Hbond + desolv Energy     =   -3.01 kcal/mol
DOCKED: USER        Electrostatic Energy            =   -0.17 kcal/mol
DOCKED: USER    (2) Final Total Internal Energy     =   -1.65 kcal/mol
DOCKED: USER    (3) Torsional Free Energy           =   +0.89 kcal/mol
DOCKED: USER    (4) Unbound System's Energy  [=(2)] =   -1.65 kcal/mol
DOCKED: USER    
DOCKED: USER    
DOCKED: USER    NEWDPF move oxalic_acid.pdbqt
DOCKED: USER    NEWDPF about 2.820000 -0.602125 0.098875
DOCKED: USER    NEWDPF tran0 54.855650 11.195937 22.198163
DOCKED: USER    NEWDPF quaternion0 -0.148974 -0.842048 -0.517571 0.029713
DOCKED: USER    NEWDPF axisangle0 -0.149040 -0.842420 -0.517799 176.594591
DOCKED: USER    NEWDPF quat0 -0.149040 -0.842420 -0.517799 176.594591
DOCKED: USER    NEWDPF dihe0 14.86 2.80 -154.33 
DOCKED: USER  keepresnum = 1 
DOCKED: USER  
DOCKED: REMARK SMILES O=C(O)C(=O)O
DOCKED: REMARK SMILES IDX 2 1 1 2 3 3 4 5 5 6 6 7
DOCKED: REMARK H PARENT 3 4 6 8
DOCKED: USER                              x       y       z     vdW  Elec       q    Type
DOCKED: USER                           _______ _______ _______ _____ _____    ______ ____
DOCKED: ROOT
DOCKED: ATOM      1  C   UNL     1      55.266  11.210  22.848 -0.12 -0.13    +0.414 C 
DOCKED: ATOM      2  O   UNL     1      54.755  11.555  23.898 -0.12 +0.08    -0.238 OA
DOCKED: ENDROOT
DOCKED: BRANCH   1   3
DOCKED: ATOM      3  O   UNL     1      56.535  10.823  22.652 -0.51 +0.13    -0.473 OA
DOCKED: ATOM      4  H   UNL     1      56.740  10.830  21.687 -0.38 -0.15    +0.297 HD
DOCKED: ENDBRANCH   1   3
DOCKED: BRANCH   1   5
DOCKED: ATOM      5  C   UNL     1      54.445  11.182  21.549 -0.13 -0.09    +0.414 C 
DOCKED: ATOM      6  O   UNL     1      53.471  11.902  21.414 -0.95 +0.03    -0.238 OA
DOCKED: BRANCH   5   7
DOCKED: ATOM      7  O   UNL     1      54.934  10.305  20.660 -0.37 +0.16    -0.473 OA
DOCKED: ATOM      8  H   UNL     1      55.703   9.828  21.053 -0.44 -0.20    +0.297 HD
DOCKED: ENDBRANCH   5   7
DOCKED: ENDBRANCH   1   5
DOCKED: TORSDOF 3
DOCKED: TER
DOCKED: ENDMDL
________________________________________________________________________________

DPF> analysis


		CLUSTER ANALYSIS OF CONFORMATIONS
		_________________________________

Number of conformations = 10

RMSD cluster analysis will be performed using the ligand atoms only (8 / 8 total atoms).

Outputting structurally similar clusters, ranked in order of increasing energy.


________________________________________________________________________________

Number of distinct conformational clusters found = 3,  out of 10 runs,
Using an rmsd-tolerance of 2.0 A


	CLUSTERING HISTOGRAM
	____________________

________________________________________________________________________________
     |           |     |           |     |                                    
Clus | Lowest    | Run | Mean      | Num | Histogram                          
-ter | Binding   |     | Binding   | in  |                                    
Rank | Energy    |     | Energy    | Clus|    5    10   15   20   25   30   35
_____|___________|_____|___________|_____|____:____|____:____|____:____|____:___
   1 |     -2.32 |   9 |     -2.28 |   7 |#######
   2 |     -2.21 |   8 |     -2.18 |   2 |##
   3 |     -2.13 |   5 |     -2.13 |   1 |#
_____|___________|_____|___________|_____|______________________________________


Number of multi-member conformational clusters found = 2, out of 10 runs.

	RMSD TABLE
	__________

_____________________________________________________________________
     |      |      |           |         |                 |
Rank | Sub- | Run  | Binding   | Cluster | Reference       | Grep
     | Rank |      | Energy    | RMSD    | RMSD            | Pattern
_____|______|______|___________|_________|_________________|___________
   1      1      9       -2.32      0.00     56.73           RANKING
   1      2      4       -2.31      0.04     56.74           RANKING
   1      3      6       -2.31      0.41     56.65           RANKING
   1      4      7       -2.29      0.11     56.73           RANKING
   1      5     10       -2.29      0.07     56.75           RANKING
   1      6      1       -2.21      0.51     56.65           RANKING
   1      7      2       -2.20      0.29     56.69           RANKING
   2      1      8       -2.21      0.00     46.97           RANKING
   2      2      3       -2.16      0.37     47.03           RANKING
   3      1      5       -2.13      0.00     50.83           RANKING
_______________________________________________________________________



	INFORMATION ENTROPY ANALYSIS FOR THIS CLUSTERING
	________________________________________________


Information entropy for this clustering = 0.35  (rmstol = 2.00 Angstrom)

_______________________________________________________________________


	STATISTICAL MECHANICAL ANALYSIS
	_______________________________


Partition function, Q =    10.04            at Temperature, T = 298.15 K
Free energy,        A ~ -1366.48 kcal/mol   at Temperature, T = 298.15 K
Internal energy,    U =    -2.24 kcal/mol   at Temperature, T = 298.15 K
Entropy,            S =     4.58 kcal/mol/K at Temperature, T = 298.15 K

_______________________________________________________________________


	LOWEST ENERGY DOCKED CONFORMATION from EACH CLUSTER
	___________________________________________________



Keeping original residue number (specified in the input PDBQ file) for outputting.

MODEL        9
USER    Run = 9
USER    Cluster Rank = 1
USER    Number of conformations in this cluster = 7
USER  
USER    RMSD from reference structure       = 56.730 A
USER  
USER    Estimated Free Energy of Binding    =   -2.32 kcal/mol  [=(1)+(2)+(3)-(4)]
USER    Estimated Inhibition Constant, Ki   =   19.89 mM (millimolar)  [Temperature = 298.15 K]
USER    
USER    (1) Final Intermolecular Energy     =   -3.22 kcal/mol
USER        vdW + Hbond + desolv Energy     =   -3.04 kcal/mol
USER        Electrostatic Energy            =   -0.18 kcal/mol
USER    (2) Final Total Internal Energy     =   -1.61 kcal/mol
USER    (3) Torsional Free Energy           =   +0.89 kcal/mol
USER    (4) Unbound System's Energy  [=(2)] =   -1.61 kcal/mol
USER    
USER    
USER  
USER    DPF = oxalic_acid.dpf
USER    NEWDPF move	oxalic_acid.pdbqt
USER    NEWDPF about	2.820000 -0.602125 0.098875
USER    NEWDPF tran0	54.834669 11.195836 22.188227
USER    NEWDPF axisangle0	0.143500 -0.555294 0.819180 -108.178055
USER    NEWDPF quaternion0	0.116225 -0.449749 0.663478 -0.586527
USER    NEWDPF dihe0	-10.77 19.38 -153.00 
USER  
USER                              x       y       z    vdW   Elec        q     RMS 
ATOM      1  C   UNL     1      54.412  11.192  21.546 -0.13 -0.09    +0.414    56.730
ATOM      2  O   UNL     1      53.479  11.963  21.412 -0.95 +0.03    -0.238    56.730
ATOM      3  O   UNL     1      54.837  10.273  20.667 -0.40 +0.15    -0.473    56.730
ATOM      4  H   UNL     1      55.708   9.912  20.958 -0.44 -0.20    +0.297    56.730
ATOM      5  C   UNL     1      55.257  11.200  22.830 -0.12 -0.13    +0.414    56.730
ATOM      6  O   UNL     1      54.778  11.572  23.887 -0.12 +0.08    -0.238    56.730
ATOM      7  O   UNL     1      56.508  10.767  22.616 -0.49 +0.13    -0.473    56.730
ATOM      8  H   UNL     1      56.720  10.827  21.654 -0.38 -0.15    +0.297    56.730
TER
ENDMDL
MODEL        8
USER    Run = 8
USER    Cluster Rank = 2
USER    Number of conformations in this cluster = 2
USER  
USER    RMSD from reference structure       = 46.975 A
USER  
USER    Estimated Free Energy of Binding    =   -2.21 kcal/mol  [=(1)+(2)+(3)-(4)]
USER    Estimated Inhibition Constant, Ki   =   23.96 mM (millimolar)  [Temperature = 298.15 K]
USER    
USER    (1) Final Intermolecular Energy     =   -3.11 kcal/mol
USER        vdW + Hbond + desolv Energy     =   -2.77 kcal/mol
USER        Electrostatic Energy            =   -0.33 kcal/mol
USER    (2) Final Total Internal Energy     =   -1.52 kcal/mol
USER    (3) Torsional Free Energy           =   +0.89 kcal/mol
USER    (4) Unbound System's Energy  [=(2)] =   -1.52 kcal/mol
USER    
USER    
USER  
USER    DPF = oxalic_acid.dpf
USER    NEWDPF move	oxalic_acid.pdbqt
USER    NEWDPF about	2.820000 -0.602125 0.098875
USER    NEWDPF tran0	46.542044 18.334895 6.960871
USER    NEWDPF axisangle0	0.571780 0.656256 0.492336 150.274228
USER    NEWDPF quaternion0	0.552650 0.634300 0.475864 0.256507
USER    NEWDPF dihe0	38.63 -39.32 -180.00 
USER  
USER                              x       y       z    vdW   Elec        q     RMS 
ATOM      1  C   UNL     1      47.215  17.964   6.987 -0.24 +0.08    +0.414    46.975
ATOM      2  O   UNL     1      47.882  17.961   8.006 -0.81 -0.17    -0.238    46.975
ATOM      3  O   UNL     1      47.511  17.370   5.822 -0.12 +0.11    -0.473    46.975
ATOM      4  H   UNL     1      47.236  17.950   5.074 -0.34 -0.18    +0.297    46.975
ATOM      5  C   UNL     1      45.869  18.705   6.935 -0.15 +0.09    +0.414    46.975
ATOM      6  O   UNL     1      45.448  19.300   7.911 -0.59 -0.17    -0.238    46.975
ATOM      7  O   UNL     1      45.279  18.597   5.735 -0.08 +0.08    -0.473    46.975
ATOM      8  H   UNL     1      45.959  18.662   5.024 -0.44 -0.17    +0.297    46.975
TER
ENDMDL
MODEL        5
USER    Run = 5
USER    Cluster Rank = 3
USER    Number of conformations in this cluster = 1
USER  
USER    RMSD from reference structure       = 50.834 A
USER  
USER    Estimated Free Energy of Binding    =   -2.13 kcal/mol  [=(1)+(2)+(3)-(4)]
USER    Estimated Inhibition Constant, Ki   =   27.40 mM (millimolar)  [Temperature = 298.15 K]
USER    
USER    (1) Final Intermolecular Energy     =   -3.03 kcal/mol
USER        vdW + Hbond + desolv Energy     =   -1.34 kcal/mol
USER        Electrostatic Energy            =   -1.69 kcal/mol
USER    (2) Final Total Internal Energy     =   -1.69 kcal/mol
USER    (3) Torsional Free Energy           =   +0.89 kcal/mol
USER    (4) Unbound System's Energy  [=(2)] =   -1.69 kcal/mol
USER    
USER    
USER  
USER    DPF = oxalic_acid.dpf
USER    NEWDPF move	oxalic_acid.pdbqt
USER    NEWDPF about	2.820000 -0.602125 0.098875
USER    NEWDPF tran0	51.591221 9.536031 14.442357
USER    NEWDPF axisangle0	-0.494761 0.077752 -0.865544 -168.516101
USER    NEWDPF quaternion0	-0.492279 0.077362 -0.861201 -0.100048
USER    NEWDPF dihe0	-37.14 -25.76 169.58 
USER  
USER                              x       y       z    vdW   Elec        q     RMS 
ATOM      1  C   UNL     1      51.637   8.976  13.918 -0.15 +0.08    +0.414    50.834
ATOM      2  O   UNL     1      51.133   7.887  14.127 -0.10 +0.02    -0.238    50.834
ATOM      3  O   UNL     1      52.309   9.362  12.823 -0.14 -0.00    -0.473    50.834
ATOM      4  H   UNL     1      52.100  10.304  12.620 -0.29 -0.12    +0.297    50.834
ATOM      5  C   UNL     1      51.545  10.096  14.966 -0.23 +0.32    +0.414    50.834
ATOM      6  O   UNL     1      50.813   9.983  15.934 -0.35 -0.04    -0.238    50.834
ATOM      7  O   UNL     1      52.337  11.136  14.667 +0.01 -1.97    -0.473    50.834
ATOM      8  H   UNL     1      53.090  10.830  14.109 -0.10 +0.01    +0.297    50.834
TER
ENDMDL


AVSFLD: # AVS field file
AVSFLD: #
AVSFLD: # Created by AutoDock
AVSFLD: #
AVSFLD: ndim=2           # number of dimensions in the field
AVSFLD: nspace=1         # number of physical coordinates
AVSFLD: veclen=7         # vector size
AVSFLD: dim1=8           # atoms
AVSFLD: dim2=3           # conformations
AVSFLD: data=Real       # data type (byte,integer,Real,double)
AVSFLD: field=uniform    # field coordinate layout
AVSFLD: label= x y z vdW Elec q RMS
AVSFLD: variable 1 file = oxalic_acid.dlg.pdb filetype = ascii offset = 5 stride = 12
AVSFLD: variable 2 file = oxalic_acid.dlg.pdb filetype = ascii offset = 6 stride = 12
AVSFLD: variable 3 file = oxalic_acid.dlg.pdb filetype = ascii offset = 7 stride = 12
AVSFLD: variable 4 file = oxalic_acid.dlg.pdb filetype = ascii offset = 8 stride = 12
AVSFLD: variable 5 file = oxalic_acid.dlg.pdb filetype = ascii offset = 9 stride = 12
AVSFLD: variable 6 file = oxalic_acid.dlg.pdb filetype = ascii offset = 10 stride = 12
AVSFLD: variable 7 file = oxalic_acid.dlg.pdb filetype = ascii offset = 11 stride = 12
AVSFLD: # end of file

>>> Closing the docking parameter file (DPF)...
This docking finished at:			4:19 29" p.m., 09/11/2026


________________________________________________________________________________

autodock4: Successful Completion on "VP"

Real= 1m 15.27s,  CPU= 1m 15.18s,  System= 0.06s
________________________________________________________________________________

