          AutoDock 4.2 Release 4.2.6   
         (C) 1989-2012 The Scripps Research Institute
        AutoDock comes with ABSOLUTELY NO WARRANTY.
        AutoDock is free software, and you are welcome
        to redistribute it under certain conditions;
        for details type 'autodock4 -C'

                     main.cc  $Revision: 1.213 $

                   Compiled on Dec 11 2024 at 15:52:35


This file was created at:			4:20 50" p.m., 09/11/2026
                   on host:		"VP"
Current Working Directory = "/home/vishishtaapandit28/docking-pipeline-project/results/3BH4/ad4_grids"

      ________________________________________________________________

                   SETTING UP DEFAULT PARAMETER LIBRARY
      ________________________________________________________________


Random number generator was seeded with values 71335, 1789123850.
Docking parameter file (DPF) used for this docking:		salicylic_acid.dpf
DPF> autodock_parameter_version 4.2

	Autodock parameter version 4.2.
DPF> outlev 1

Output Level = 1  ADT-COMPATIBLE OUTPUT DURING DOCKING.
DPF> intelec

Electrostatic energies will be calculated for all non-bonds between moving atoms.
DPF> seed pid time

Random number generator was seeded with values 71335, 1789123850.
DPF> ligand_types A C HD OA

DPF> fld receptor.maps.fld

Opening Grid Map Dimensions file:		receptor.maps.fld
Grid Point Spacing =				0.375 Angstroms

Even Number of User-specified Grid Points =	54 x-points
						54 y-points
						54 z-points

Coordinates of Central Grid Point of Maps =	(53.838, 11.958, 13.914)
Macromolecule file used to create Grid Maps =	receptor.pdbqt
Grid Parameter file used to create Grid Maps =	receptor.gpf
Minimum coordinates in grid = (43.713, 1.833, 3.789)
Maximum coordinates in grid = (63.963, 22.083, 24.039)

DPF> map receptor.A.map

DPF> map receptor.C.map

DPF> map receptor.HD.map

DPF> map receptor.OA.map

DPF> elecmap receptor.e.map

DPF> desolvmap receptor.d.map

DPF> move salicylic_acid.pdbqt

1,4-interactions will be _ignored_ in the non-bonded internal energy calculation.

Ligand PDBQT file = "salicylic_acid.pdbqt"

INPUT LIGAND PDBQT FILE:
________________________

INPUT-LIGAND-PDBQT: REMARK SMILES O=C(O)c1ccccc1O
INPUT-LIGAND-PDBQT: REMARK SMILES IDX 4 1 5 2 6 3 7 4 8 5 9 6 2 7 1 8 3 9 10 11
INPUT-LIGAND-PDBQT: REMARK H PARENT 3 10 10 12
INPUT-LIGAND-PDBQT: ROOT
INPUT-LIGAND-PDBQT: ATOM      1  C   UNL     1       3.174   0.084   1.281  1.00  0.00    +0.101 A 
INPUT-LIGAND-PDBQT: ATOM      2  C   UNL     1       3.448   1.370   1.772  1.00  0.00    +0.019 A 
INPUT-LIGAND-PDBQT: ATOM      3  C   UNL     1       4.200   1.535   2.935  1.00  0.00    +0.001 A 
INPUT-LIGAND-PDBQT: ATOM      4  C   UNL     1       4.697   0.420   3.605  1.00  0.00    +0.004 A 
INPUT-LIGAND-PDBQT: ATOM      5  C   UNL     1       4.442  -0.864   3.123  1.00  0.00    +0.047 A 
INPUT-LIGAND-PDBQT: ATOM      6  C   UNL     1       3.677  -1.028   1.966  1.00  0.00    +0.130 A 
INPUT-LIGAND-PDBQT: ENDROOT
INPUT-LIGAND-PDBQT: BRANCH   1   7
INPUT-LIGAND-PDBQT: ATOM      7  C   UNL     1       2.365  -0.015   0.035  1.00  0.00    +0.339 C 
INPUT-LIGAND-PDBQT: ATOM      8  O   UNL     1       2.260   0.906  -0.758  1.00  0.00    -0.246 OA
INPUT-LIGAND-PDBQT: BRANCH   7   9
INPUT-LIGAND-PDBQT: ATOM      9  O   UNL     1       1.701  -1.183  -0.107  1.00  0.00    -0.478 OA
INPUT-LIGAND-PDBQT: ATOM     10  H   UNL     1       1.975  -1.845   0.565  1.00  0.00    +0.297 HD
INPUT-LIGAND-PDBQT: ENDBRANCH   7   9
INPUT-LIGAND-PDBQT: ENDBRANCH   1   7
INPUT-LIGAND-PDBQT: BRANCH   6  11
INPUT-LIGAND-PDBQT: ATOM     11  O   UNL     1       3.407  -2.293   1.512  1.00  0.00    -0.507 OA
INPUT-LIGAND-PDBQT: ATOM     12  H   UNL     1       4.016  -2.914   1.953  1.00  0.00    +0.293 HD
INPUT-LIGAND-PDBQT: ENDBRANCH   6  11
INPUT-LIGAND-PDBQT: TORSDOF 3
________________________________________________________________________________

Total charge on ligand                               =	+0.000 e
REMARK SMILES O=C(O)c1ccccc1O
REMARK SMILES IDX 4 1 5 2 6 3 7 4 8 5 9 6 2 7 1 8 3 9 10 11
REMARK H PARENT 3 10 10 12


Number of Rotatable Bonds in Small Molecule =	3 torsions
Number of atoms in ligand:  12

Number of non-hydrogen atoms in ligand:  10

Number of vibrational degrees of freedom of ligand:  30


Number of torsional degrees of freedom = 3
Estimated loss of torsional free energy upon binding = +0.8949 kcal/mol


DPF> about 3.2801666666666667 -0.4855833333333333 1.4901666666666669

Small molecule center of rotation =	(+3.280, -0.486, +1.490)

DPF> tran0 random

Initial translation =			(59.379, 6.715, 12.832) Angstroms
DPF> quat0 random

Each run will begin with a new, random initial orientation.
Initial quaternion,  (x,y,z,w) =	( -0.278, 0.755, -0.559, 0.200 ),
DPF> dihe0 random

DPF> tstep 2.0

Initial simanneal cycle, maximum translation step = +/- 2.0 Angstroms
DPF> qstep 50.0

Initial simanneal cycle, maximum quaternion angle step = +/- 50.0 deg
DPF> dstep 50.0

Initial simanneal cycle, maximum torsion angle step = +/- 50.0 deg
DPF> torsdof 3

Number of torsional degrees of freedom = 3
Free energy coefficient for torsional degrees of freedom = 0.2983, the factory default value.

Estimated loss of torsional free energy upon binding = +0.8949 kcal/mol

DPF> rmstol 2.0

Maximum RMS tolerance for conformational cluster analysis = 2.00 Angstroms
DPF> extnrg 1000.0

External grid energy (beyond grid map walls) = 1000.00

DPF> e0max 0.0 10000

Using user-specified maximum number of retries for simanneal initialization, 10000 retries.
If the simanneal initial energy is greater than e0max, 0.000,
then a new, random initial state will be created.

DPF> ga_pop_size 150

A population of 150 individuals will be used
DPF> ga_num_evals 2500000

There will be at most 2500000 function evaluations used.
DPF> ga_num_generations 27000

The GA will run for at most 27000 generations.
DPF> ga_elitism 1

The 1 best will be preserved each GA generation.
DPF> ga_mutation_rate 0.02

The mutation rate is 0.020000.
DPF> ga_crossover_rate 0.8

The crossover rate is 0.800000.
DPF> ga_window_size 10

The GA's selection window is 10 generations.
DPF> ga_cauchy_alpha 0.0

The alpha parameter (for the Cauchy distribution) is being set to 0.000000.
DPF> ga_cauchy_beta 1.0

The beta parameter (for the Cauchy distribution) is being set to 1.000000.
DPF> set_ga

DPF> sw_max_its 300

Solis & Wets algorithms will perform at most 300 iterations.
DPF> sw_max_succ 4

Solis & Wets algorithms expand rho every 4 in a row successes.
DPF> sw_max_fail 4

Solis & Wets algorithms contract rho every 4 in a row failures.
DPF> sw_rho 1.0

rho is set to 1.000000.
DPF> sw_lb_rho 0.01

rho will never get smaller than 0.010000.
DPF> ls_search_freq 0.06

Local search will be performed with frequency 0.060000.
DPF> set_psw1

Creating a new Local Search object using the pseudo-Solis-Wets algorithm (pSW1) with the current settings.

DPF> unbound_model bound

DPF> ga_run 10

centering ligand on specified point: 3.280 -0.486 1.490
Furthest true ligand atom from "about" center is 2.834 Angstroms (maxrad).
Number of requested GA dockings = 10 runs
Unbound model to be used is 'same as bound' [AutoDock 4.2 default].

	BEGINNING GENETIC ALGORITHM DOCKING 1 of 10
Run: 1 Seed: 644243236 235339594 [ Run 1 of 10 GA/GALS ]
Beginning LAMARCKIAN GENETIC ALGORITHM (LGA), with a maximum of 2500000 energy evaluations.

Final-Value: -4.651


	FINAL GENETIC ALGORITHM DOCKED STATE
	_______________________________________________


Detailed state:  trans 50.863 9.147 13.727 quatxyzw -0.636490 0.653029 0.281715 0.298448 center 3.280 -0.486 1.490 ntor 3 -34.5118 133.3216 -15.1920
State:	 50.863   9.147  13.727  -0.667  0.684  0.295 145.271    -34.51  133.32  -15.19

DOCKED: MODEL        1
DOCKED: USER    Run = 1
DOCKED: USER    DPF = salicylic_acid.dpf
DOCKED: USER  
DOCKED: USER    Estimated Free Energy of Binding    =   -2.72 kcal/mol  [=(1)+(2)+(3)-(4)]
DOCKED: USER    Estimated Inhibition Constant, Ki   =   10.15 mM (millimolar)  [Temperature = 298.15 K]
DOCKED: USER    
DOCKED: USER    (1) Final Intermolecular Energy     =   -3.61 kcal/mol
DOCKED: USER        vdW + Hbond + desolv Energy     =   -2.35 kcal/mol
DOCKED: USER        Electrostatic Energy            =   -1.27 kcal/mol
DOCKED: USER    (2) Final Total Internal Energy     =   -1.04 kcal/mol
DOCKED: USER    (3) Torsional Free Energy           =   +0.89 kcal/mol
DOCKED: USER    (4) Unbound System's Energy  [=(2)] =   -1.04 kcal/mol
DOCKED: USER    
DOCKED: USER    
DOCKED: USER    NEWDPF move salicylic_acid.pdbqt
DOCKED: USER    NEWDPF about 3.280167 -0.485583 1.490167
DOCKED: USER    NEWDPF tran0 50.862937 9.146700 13.727025
DOCKED: USER    NEWDPF quaternion0 -0.636490 0.653029 0.281715 0.298448
DOCKED: USER    NEWDPF axisangle0 -0.666882 0.684211 0.295166 145.271152
DOCKED: USER    NEWDPF quat0 -0.666882 0.684211 0.295166 145.271152
DOCKED: USER    NEWDPF dihe0 -34.51 133.32 -15.19 
DOCKED: USER  keepresnum = 1 
DOCKED: USER  
DOCKED: REMARK SMILES O=C(O)c1ccccc1O
DOCKED: REMARK SMILES IDX 4 1 5 2 6 3 7 4 8 5 9 6 2 7 1 8 3 9 10 11
DOCKED: REMARK H PARENT 3 10 10 12
DOCKED: USER                              x       y       z     vdW  Elec       q    Type
DOCKED: USER                           _______ _______ _______ _____ _____    ______ ____
DOCKED: ROOT
DOCKED: ATOM      1  C   UNL     1      50.643   9.273  14.288 -0.20 +0.01    +0.101 A 
DOCKED: ATOM      2  C   UNL     1      49.420   9.033  14.933 -0.12 -0.00    +0.019 A 
DOCKED: ATOM      3  C   UNL     1      48.431   8.273  14.309 -0.08 -0.00    +0.001 A 
DOCKED: ATOM      4  C   UNL     1      48.663   7.733  13.046 -0.06 -0.00    +0.004 A 
DOCKED: ATOM      5  C   UNL     1      49.878   7.954  12.397 -0.08 -0.01    +0.047 A 
DOCKED: ATOM      6  C   UNL     1      50.862   8.728  13.018 -0.16 -0.02    +0.130 A 
DOCKED: ENDROOT
DOCKED: BRANCH   1   7
DOCKED: ATOM      7  C   UNL     1      51.651  10.093  15.015 -0.31 +0.29    +0.339 C 
DOCKED: ATOM      8  O   UNL     1      51.494  10.461  16.168 -0.47 -0.09    -0.246 OA
DOCKED: BRANCH   7   9
DOCKED: ATOM      9  O   UNL     1      52.717  10.456  14.270 -0.08 -1.82    -0.478 OA
DOCKED: ATOM     10  H   UNL     1      53.057   9.710  13.728 -0.38 +0.45    +0.297 HD
DOCKED: ENDBRANCH   7   9
DOCKED: ENDBRANCH   1   7
DOCKED: BRANCH   6  11
DOCKED: ATOM     11  O   UNL     1      52.044   8.964  12.365 -0.09 +0.18    -0.507 OA
DOCKED: ATOM     12  H   UNL     1      52.127   9.924  12.218 -0.33 -0.24    +0.293 HD
DOCKED: ENDBRANCH   6  11
DOCKED: TORSDOF 3
DOCKED: TER
DOCKED: ENDMDL
________________________________________________________________________________


	BEGINNING GENETIC ALGORITHM DOCKING 2 of 10
Run: 2 Seed: 1661403988 517744808 [ Run 2 of 10 GA/GALS ]
Beginning LAMARCKIAN GENETIC ALGORITHM (LGA), with a maximum of 2500000 energy evaluations.

Final-Value: -4.658


	FINAL GENETIC ALGORITHM DOCKED STATE
	_______________________________________________


Detailed state:  trans 54.799 11.352 22.424 quatxyzw -0.032762 0.867716 0.424587 0.256361 center 3.280 -0.486 1.490 ntor 3 69.4825 -109.2171 -39.7019
State:	 54.799  11.352  22.424  -0.034  0.898  0.439 150.292     69.48 -109.22  -39.70

DOCKED: MODEL        2
DOCKED: USER    Run = 2
DOCKED: USER    DPF = salicylic_acid.dpf
DOCKED: USER  
DOCKED: USER    Estimated Free Energy of Binding    =   -2.73 kcal/mol  [=(1)+(2)+(3)-(4)]
DOCKED: USER    Estimated Inhibition Constant, Ki   =   10.00 mM (millimolar)  [Temperature = 298.15 K]
DOCKED: USER    
DOCKED: USER    (1) Final Intermolecular Energy     =   -3.62 kcal/mol
DOCKED: USER        vdW + Hbond + desolv Energy     =   -3.49 kcal/mol
DOCKED: USER        Electrostatic Energy            =   -0.13 kcal/mol
DOCKED: USER    (2) Final Total Internal Energy     =   -1.03 kcal/mol
DOCKED: USER    (3) Torsional Free Energy           =   +0.89 kcal/mol
DOCKED: USER    (4) Unbound System's Energy  [=(2)] =   -1.03 kcal/mol
DOCKED: USER    
DOCKED: USER    
DOCKED: USER    NEWDPF move salicylic_acid.pdbqt
DOCKED: USER    NEWDPF about 3.280167 -0.485583 1.490167
DOCKED: USER    NEWDPF tran0 54.799264 11.352454 22.424085
DOCKED: USER    NEWDPF quaternion0 -0.032762 0.867716 0.424587 0.256361
DOCKED: USER    NEWDPF axisangle0 -0.033895 0.897717 0.439267 150.291501
DOCKED: USER    NEWDPF quat0 -0.033895 0.897717 0.439267 150.291501
DOCKED: USER    NEWDPF dihe0 69.48 -109.22 -39.70 
DOCKED: USER  keepresnum = 1 
DOCKED: USER  
DOCKED: REMARK SMILES O=C(O)c1ccccc1O
DOCKED: REMARK SMILES IDX 4 1 5 2 6 3 7 4 8 5 9 6 2 7 1 8 3 9 10 11
DOCKED: REMARK H PARENT 3 10 10 12
DOCKED: USER                              x       y       z     vdW  Elec       q    Type
DOCKED: USER                           _______ _______ _______ _____ _____    ______ ____
DOCKED: ROOT
DOCKED: ATOM      1  C   UNL     1      55.082  11.594  22.915 -0.20 -0.03    +0.101 A 
DOCKED: ATOM      2  C   UNL     1      54.819  12.692  23.749 -0.20 -0.01    +0.019 A 
DOCKED: ATOM      3  C   UNL     1      53.644  13.428  23.597 -0.34 -0.00    +0.001 A 
DOCKED: ATOM      4  C   UNL     1      52.718  13.063  22.623 -0.35 -0.00    +0.004 A 
DOCKED: ATOM      5  C   UNL     1      52.960  11.968  21.794 -0.39 -0.01    +0.047 A 
DOCKED: ATOM      6  C   UNL     1      54.143  11.240  21.939 -0.30 -0.03    +0.130 A 
DOCKED: ENDROOT
DOCKED: BRANCH   1   7
DOCKED: ATOM      7  C   UNL     1      56.356  10.856  23.136 -0.11 -0.09    +0.339 C 
DOCKED: ATOM      8  O   UNL     1      57.296  11.332  23.750 -0.77 +0.05    -0.246 OA
DOCKED: BRANCH   7   9
DOCKED: ATOM      9  O   UNL     1      56.409   9.645  22.540 -0.20 +0.19    -0.478 OA
DOCKED: ATOM     10  H   UNL     1      56.308   9.711  21.565 -0.42 -0.23    +0.297 HD
DOCKED: ENDBRANCH   7   9
DOCKED: ENDBRANCH   1   7
DOCKED: BRANCH   6  11
DOCKED: ATOM     11  O   UNL     1      54.388  10.181  21.104 -0.33 +0.14    -0.507 OA
DOCKED: ATOM     12  H   UNL     1      54.558   9.392  21.650 +0.10 -0.11    +0.293 HD
DOCKED: ENDBRANCH   6  11
DOCKED: TORSDOF 3
DOCKED: TER
DOCKED: ENDMDL
________________________________________________________________________________


	BEGINNING GENETIC ALGORITHM DOCKING 3 of 10
Run: 3 Seed: 959009093 2027071173 [ Run 3 of 10 GA/GALS ]
Beginning LAMARCKIAN GENETIC ALGORITHM (LGA), with a maximum of 2500000 energy evaluations.

Final-Value: -5.143


	FINAL GENETIC ALGORITHM DOCKED STATE
	_______________________________________________


Detailed state:  trans 51.107 9.609 14.419 quatxyzw 0.141227 -0.032436 0.823783 -0.548074 center 3.280 -0.486 1.490 ntor 3 -57.2418 145.8037 -15.6733
State:	 51.107   9.609  14.419   0.169 -0.039  0.985 -113.530    -57.24  145.80  -15.67

DOCKED: MODEL        3
DOCKED: USER    Run = 3
DOCKED: USER    DPF = salicylic_acid.dpf
DOCKED: USER  
DOCKED: USER    Estimated Free Energy of Binding    =   -3.22 kcal/mol  [=(1)+(2)+(3)-(4)]
DOCKED: USER    Estimated Inhibition Constant, Ki   =    4.34 mM (millimolar)  [Temperature = 298.15 K]
DOCKED: USER    
DOCKED: USER    (1) Final Intermolecular Energy     =   -4.12 kcal/mol
DOCKED: USER        vdW + Hbond + desolv Energy     =   -2.71 kcal/mol
DOCKED: USER        Electrostatic Energy            =   -1.40 kcal/mol
DOCKED: USER    (2) Final Total Internal Energy     =   -1.03 kcal/mol
DOCKED: USER    (3) Torsional Free Energy           =   +0.89 kcal/mol
DOCKED: USER    (4) Unbound System's Energy  [=(2)] =   -1.03 kcal/mol
DOCKED: USER    
DOCKED: USER    
DOCKED: USER    NEWDPF move salicylic_acid.pdbqt
DOCKED: USER    NEWDPF about 3.280167 -0.485583 1.490167
DOCKED: USER    NEWDPF tran0 51.107036 9.608785 14.418999
DOCKED: USER    NEWDPF quaternion0 0.141227 -0.032436 0.823783 -0.548074
DOCKED: USER    NEWDPF axisangle0 0.168845 -0.038779 0.984880 -113.530087
DOCKED: USER    NEWDPF quat0 0.168845 -0.038779 0.984880 -113.530087
DOCKED: USER    NEWDPF dihe0 -57.24 145.80 -15.67 
DOCKED: USER  keepresnum = 1 
DOCKED: USER  
DOCKED: REMARK SMILES O=C(O)c1ccccc1O
DOCKED: REMARK SMILES IDX 4 1 5 2 6 3 7 4 8 5 9 6 2 7 1 8 3 9 10 11
DOCKED: REMARK H PARENT 3 10 10 12
DOCKED: USER                              x       y       z     vdW  Elec       q    Type
DOCKED: USER                           _______ _______ _______ _____ _____    ______ ____
DOCKED: ROOT
DOCKED: ATOM      1  C   UNL     1      50.584   9.331  14.248 -0.20 +0.01    +0.101 A 
DOCKED: ATOM      2  C   UNL     1      49.410   8.963  14.922 -0.13 -0.00    +0.019 A 
DOCKED: ATOM      3  C   UNL     1      49.218   9.328  16.255 -0.21 -0.00    +0.001 A 
DOCKED: ATOM      4  C   UNL     1      50.189  10.075  16.917 -0.36 -0.00    +0.004 A 
DOCKED: ATOM      5  C   UNL     1      51.357  10.458  16.257 -0.33 +0.01    +0.047 A 
DOCKED: ATOM      6  C   UNL     1      51.553  10.080  14.926 -0.38 +0.10    +0.130 A 
DOCKED: ENDROOT
DOCKED: BRANCH   1   7
DOCKED: ATOM      7  C   UNL     1      50.720   8.907  12.827 -0.10 -0.08    +0.339 C 
DOCKED: ATOM      8  O   UNL     1      49.821   8.352  12.216 -0.08 +0.07    -0.246 OA
DOCKED: BRANCH   7   9
DOCKED: ATOM      9  O   UNL     1      51.943   9.123  12.295 -0.10 +0.21    -0.478 OA
DOCKED: ATOM     10  H   UNL     1      52.143  10.081  12.213 -0.33 -0.29    +0.297 HD
DOCKED: ENDBRANCH   7   9
DOCKED: ENDBRANCH   1   7
DOCKED: BRANCH   6  11
DOCKED: ATOM     11  O   UNL     1      52.714  10.435  14.291 -0.08 -1.89    -0.507 OA
DOCKED: ATOM     12  H   UNL     1      53.089   9.640  13.868 -0.41 +0.44    +0.293 HD
DOCKED: ENDBRANCH   6  11
DOCKED: TORSDOF 3
DOCKED: TER
DOCKED: ENDMDL
________________________________________________________________________________


	BEGINNING GENETIC ALGORITHM DOCKING 4 of 10
Run: 4 Seed: 757276044 1727921289 [ Run 4 of 10 GA/GALS ]
Beginning LAMARCKIAN GENETIC ALGORITHM (LGA), with a maximum of 2500000 energy evaluations.

Final-Value: -4.521


	FINAL GENETIC ALGORITHM DOCKED STATE
	_______________________________________________


Detailed state:  trans 59.553 10.634 8.667 quatxyzw -0.701295 0.186766 0.006328 -0.687942 center 3.280 -0.486 1.490 ntor 3 22.8152 138.6070 9.7281
State:	 59.553  10.634   8.667  -0.966  0.257  0.009 -93.065     22.82  138.61    9.73

DOCKED: MODEL        4
DOCKED: USER    Run = 4
DOCKED: USER    DPF = salicylic_acid.dpf
DOCKED: USER  
DOCKED: USER    Estimated Free Energy of Binding    =   -2.77 kcal/mol  [=(1)+(2)+(3)-(4)]
DOCKED: USER    Estimated Inhibition Constant, Ki   =    9.27 mM (millimolar)  [Temperature = 298.15 K]
DOCKED: USER    
DOCKED: USER    (1) Final Intermolecular Energy     =   -3.67 kcal/mol
DOCKED: USER        vdW + Hbond + desolv Energy     =   -3.52 kcal/mol
DOCKED: USER        Electrostatic Energy            =   -0.15 kcal/mol
DOCKED: USER    (2) Final Total Internal Energy     =   -0.85 kcal/mol
DOCKED: USER    (3) Torsional Free Energy           =   +0.89 kcal/mol
DOCKED: USER    (4) Unbound System's Energy  [=(2)] =   -0.85 kcal/mol
DOCKED: USER    
DOCKED: USER    
DOCKED: USER    NEWDPF move salicylic_acid.pdbqt
DOCKED: USER    NEWDPF about 3.280167 -0.485583 1.490167
DOCKED: USER    NEWDPF tran0 59.553000 10.633749 8.667406
DOCKED: USER    NEWDPF quaternion0 -0.701295 0.186766 0.006328 -0.687942
DOCKED: USER    NEWDPF axisangle0 -0.966283 0.257336 0.008719 -93.065177
DOCKED: USER    NEWDPF quat0 -0.966283 0.257336 0.008719 -93.065177
DOCKED: USER    NEWDPF dihe0 22.82 138.61 9.73 
DOCKED: USER  keepresnum = 1 
DOCKED: USER  
DOCKED: REMARK SMILES O=C(O)c1ccccc1O
DOCKED: REMARK SMILES IDX 4 1 5 2 6 3 7 4 8 5 9 6 2 7 1 8 3 9 10 11
DOCKED: REMARK H PARENT 3 10 10 12
DOCKED: USER                              x       y       z     vdW  Elec       q    Type
DOCKED: USER                           _______ _______ _______ _____ _____    ______ ____
DOCKED: ROOT
DOCKED: ATOM      1  C   UNL     1      59.248  10.468   8.159 -0.27 -0.05    +0.101 A 
DOCKED: ATOM      2  C   UNL     1      59.277  10.894   6.822 -0.37 -0.01    +0.019 A 
DOCKED: ATOM      3  C   UNL     1      60.220  11.831   6.401 -0.39 -0.00    +0.001 A 
DOCKED: ATOM      4  C   UNL     1      61.150  12.335   7.306 -0.39 -0.00    +0.004 A 
DOCKED: ATOM      5  C   UNL     1      61.141  11.913   8.636 -0.40 -0.02    +0.047 A 
DOCKED: ATOM      6  C   UNL     1      60.187  10.985   9.059 -0.34 -0.06    +0.130 A 
DOCKED: ENDROOT
DOCKED: BRANCH   1   7
DOCKED: ATOM      7  C   UNL     1      58.213   9.466   8.535 -0.14 -0.14    +0.339 C 
DOCKED: ATOM      8  O   UNL     1      57.795   8.625   7.757 -0.18 +0.10    -0.246 OA
DOCKED: BRANCH   7   9
DOCKED: ATOM      9  O   UNL     1      57.727   9.611   9.787 -0.16 +0.22    -0.478 OA
DOCKED: ATOM     10  H   UNL     1      57.976  10.476  10.180 -0.40 -0.21    +0.297 HD
DOCKED: ENDBRANCH   7   9
DOCKED: ENDBRANCH   1   7
DOCKED: BRANCH   6  11
DOCKED: ATOM     11  O   UNL     1      60.166  10.593  10.372 -0.18 +0.27    -0.507 OA
DOCKED: ATOM     12  H   UNL     1      59.280  10.782  10.735 -0.31 -0.25    +0.293 HD
DOCKED: ENDBRANCH   6  11
DOCKED: TORSDOF 3
DOCKED: TER
DOCKED: ENDMDL
________________________________________________________________________________


	BEGINNING GENETIC ALGORITHM DOCKING 5 of 10
Run: 5 Seed: 1065492911 684522918 [ Run 5 of 10 GA/GALS ]
Beginning LAMARCKIAN GENETIC ALGORITHM (LGA), with a maximum of 2500000 energy evaluations.

Final-Value: -4.604


	FINAL GENETIC ALGORITHM DOCKED STATE
	_______________________________________________


Detailed state:  trans 60.448 10.866 9.236 quatxyzw -0.566359 -0.816450 0.104751 0.040918 center 3.280 -0.486 1.490 ntor 3 11.9223 -114.9648 -67.7081
State:	 60.448  10.866   9.236  -0.567 -0.817  0.105 175.310     11.92 -114.96  -67.71

DOCKED: MODEL        5
DOCKED: USER    Run = 5
DOCKED: USER    DPF = salicylic_acid.dpf
DOCKED: USER  
DOCKED: USER    Estimated Free Energy of Binding    =   -2.87 kcal/mol  [=(1)+(2)+(3)-(4)]
DOCKED: USER    Estimated Inhibition Constant, Ki   =    7.85 mM (millimolar)  [Temperature = 298.15 K]
DOCKED: USER    
DOCKED: USER    (1) Final Intermolecular Energy     =   -3.77 kcal/mol
DOCKED: USER        vdW + Hbond + desolv Energy     =   -3.53 kcal/mol
DOCKED: USER        Electrostatic Energy            =   -0.24 kcal/mol
DOCKED: USER    (2) Final Total Internal Energy     =   -0.84 kcal/mol
DOCKED: USER    (3) Torsional Free Energy           =   +0.89 kcal/mol
DOCKED: USER    (4) Unbound System's Energy  [=(2)] =   -0.84 kcal/mol
DOCKED: USER    
DOCKED: USER    
DOCKED: USER    NEWDPF move salicylic_acid.pdbqt
DOCKED: USER    NEWDPF about 3.280167 -0.485583 1.490167
DOCKED: USER    NEWDPF tran0 60.448362 10.865746 9.236462
DOCKED: USER    NEWDPF quaternion0 -0.566359 -0.816450 0.104751 0.040918
DOCKED: USER    NEWDPF axisangle0 -0.566834 -0.817134 0.104839 175.309784
DOCKED: USER    NEWDPF quat0 -0.566834 -0.817134 0.104839 175.309784
DOCKED: USER    NEWDPF dihe0 11.92 -114.96 -67.71 
DOCKED: USER  keepresnum = 1 
DOCKED: USER  
DOCKED: REMARK SMILES O=C(O)c1ccccc1O
DOCKED: REMARK SMILES IDX 4 1 5 2 6 3 7 4 8 5 9 6 2 7 1 8 3 9 10 11
DOCKED: REMARK H PARENT 3 10 10 12
DOCKED: USER                              x       y       z     vdW  Elec       q    Type
DOCKED: USER                           _______ _______ _______ _____ _____    ______ ____
DOCKED: ROOT
DOCKED: ATOM      1  C   UNL     1      61.029  11.006   9.389 -0.34 -0.04    +0.101 A 
DOCKED: ATOM      2  C   UNL     1      62.106  11.583   8.699 -0.35 -0.01    +0.019 A 
DOCKED: ATOM      3  C   UNL     1      61.933  12.074   7.406 -0.35 -0.00    +0.001 A 
DOCKED: ATOM      4  C   UNL     1      60.681  12.009   6.799 -0.38 -0.00    +0.004 A 
DOCKED: ATOM      5  C   UNL     1      59.598  11.448   7.477 -0.40 -0.02    +0.047 A 
DOCKED: ATOM      6  C   UNL     1      59.776  10.943   8.767 -0.31 -0.06    +0.130 A 
DOCKED: ENDROOT
DOCKED: BRANCH   1   7
DOCKED: ATOM      7  C   UNL     1      61.288  10.502  10.766 -0.23 -0.13    +0.339 C 
DOCKED: ATOM      8  O   UNL     1      62.258   9.817  11.046 -0.28 +0.07    -0.246 OA
DOCKED: BRANCH   7   9
DOCKED: ATOM      9  O   UNL     1      60.324  10.807  11.662 -0.17 +0.24    -0.478 OA
DOCKED: ATOM     10  H   UNL     1      59.576  11.289  11.246 -0.26 -0.29    +0.297 HD
DOCKED: ENDBRANCH   7   9
DOCKED: ENDBRANCH   1   7
DOCKED: BRANCH   6  11
DOCKED: ATOM     11  O   UNL     1      58.715  10.369   9.417 -0.10 +0.28    -0.507 OA
DOCKED: ATOM     12  H   UNL     1      58.655  10.758  10.309 -0.37 -0.27    +0.293 HD
DOCKED: ENDBRANCH   6  11
DOCKED: TORSDOF 3
DOCKED: TER
DOCKED: ENDMDL
________________________________________________________________________________


	BEGINNING GENETIC ALGORITHM DOCKING 6 of 10
Run: 6 Seed: 408903642 1693355707 [ Run 6 of 10 GA/GALS ]
Beginning LAMARCKIAN GENETIC ALGORITHM (LGA), with a maximum of 2500000 energy evaluations.

Final-Value: -4.826


	FINAL GENETIC ALGORITHM DOCKED STATE
	_______________________________________________


Detailed state:  trans 51.786 9.015 14.567 quatxyzw -0.076854 -0.164679 -0.933114 0.310277 center 3.280 -0.486 1.490 ntor 3 28.9401 -133.0524 4.4871
State:	 51.786   9.015  14.567  -0.081 -0.173 -0.982 143.848     28.94 -133.05    4.49

DOCKED: MODEL        6
DOCKED: USER    Run = 6
DOCKED: USER    DPF = salicylic_acid.dpf
DOCKED: USER  
DOCKED: USER    Estimated Free Energy of Binding    =   -2.87 kcal/mol  [=(1)+(2)+(3)-(4)]
DOCKED: USER    Estimated Inhibition Constant, Ki   =    7.87 mM (millimolar)  [Temperature = 298.15 K]
DOCKED: USER    
DOCKED: USER    (1) Final Intermolecular Energy     =   -3.77 kcal/mol
DOCKED: USER        vdW + Hbond + desolv Energy     =   -2.36 kcal/mol
DOCKED: USER        Electrostatic Energy            =   -1.41 kcal/mol
DOCKED: USER    (2) Final Total Internal Energy     =   -1.06 kcal/mol
DOCKED: USER    (3) Torsional Free Energy           =   +0.89 kcal/mol
DOCKED: USER    (4) Unbound System's Energy  [=(2)] =   -1.06 kcal/mol
DOCKED: USER    
DOCKED: USER    
DOCKED: USER    NEWDPF move salicylic_acid.pdbqt
DOCKED: USER    NEWDPF about 3.280167 -0.485583 1.490167
DOCKED: USER    NEWDPF tran0 51.786224 9.014602 14.567104
DOCKED: USER    NEWDPF quaternion0 -0.076854 -0.164679 -0.933114 0.310277
DOCKED: USER    NEWDPF axisangle0 -0.080844 -0.173229 -0.981558 143.848152
DOCKED: USER    NEWDPF quat0 -0.080844 -0.173229 -0.981558 143.848152
DOCKED: USER    NEWDPF dihe0 28.94 -133.05 4.49 
DOCKED: USER  keepresnum = 1 
DOCKED: USER  
DOCKED: REMARK SMILES O=C(O)c1ccccc1O
DOCKED: REMARK SMILES IDX 4 1 5 2 6 3 7 4 8 5 9 6 2 7 1 8 3 9 10 11
DOCKED: REMARK H PARENT 3 10 10 12
DOCKED: USER                              x       y       z     vdW  Elec       q    Type
DOCKED: USER                           _______ _______ _______ _____ _____    ______ ____
DOCKED: ROOT
DOCKED: ATOM      1  C   UNL     1      51.504   8.467  14.570 -0.20 +0.01    +0.101 A 
DOCKED: ATOM      2  C   UNL     1      50.694   7.792  15.496 -0.12 -0.00    +0.019 A 
DOCKED: ATOM      3  C   UNL     1      50.290   8.424  16.672 -0.17 -0.00    +0.001 A 
DOCKED: ATOM      4  C   UNL     1      50.677   9.738  16.922 -0.36 -0.00    +0.004 A 
DOCKED: ATOM      5  C   UNL     1      51.472  10.426  16.006 -0.38 +0.02    +0.047 A 
DOCKED: ATOM      6  C   UNL     1      51.888   9.787  14.835 -0.40 +0.11    +0.130 A 
DOCKED: ENDROOT
DOCKED: BRANCH   1   7
DOCKED: ATOM      7  C   UNL     1      51.896   7.729  13.337 -0.08 -0.05    +0.339 C 
DOCKED: ATOM      8  O   UNL     1      51.231   6.817  12.875 -0.03 +0.06    -0.246 OA
DOCKED: BRANCH   7   9
DOCKED: ATOM      9  O   UNL     1      53.084   8.107  12.816 -0.07 +0.08    -0.478 OA
DOCKED: ATOM     10  H   UNL     1      53.641   8.577  13.475 -0.29 -0.00    +0.297 HD
DOCKED: ENDBRANCH   7   9
DOCKED: ENDBRANCH   1   7
DOCKED: BRANCH   6  11
DOCKED: ATOM     11  O   UNL     1      52.692  10.458  13.951 +0.12 -1.89    -0.507 OA
DOCKED: ATOM     12  H   UNL     1      52.491  10.140  13.051 -0.37 +0.26    +0.293 HD
DOCKED: ENDBRANCH   6  11
DOCKED: TORSDOF 3
DOCKED: TER
DOCKED: ENDMDL
________________________________________________________________________________


	BEGINNING GENETIC ALGORITHM DOCKING 7 of 10
Run: 7 Seed: 915383425 979620658 [ Run 7 of 10 GA/GALS ]
Beginning LAMARCKIAN GENETIC ALGORITHM (LGA), with a maximum of 2500000 energy evaluations.

Final-Value: -4.781


	FINAL GENETIC ALGORITHM DOCKED STATE
	_______________________________________________


Detailed state:  trans 54.798 11.267 22.392 quatxyzw 0.121968 -0.030074 -0.448576 0.884872 center 3.280 -0.486 1.490 ntor 3 -33.9487 -102.9744 -36.3009
State:	 54.798  11.267  22.392   0.262 -0.065 -0.963 55.528    -33.95 -102.97  -36.30

DOCKED: MODEL        7
DOCKED: USER    Run = 7
DOCKED: USER    DPF = salicylic_acid.dpf
DOCKED: USER  
DOCKED: USER    Estimated Free Energy of Binding    =   -3.09 kcal/mol  [=(1)+(2)+(3)-(4)]
DOCKED: USER    Estimated Inhibition Constant, Ki   =    5.48 mM (millimolar)  [Temperature = 298.15 K]
DOCKED: USER    
DOCKED: USER    (1) Final Intermolecular Energy     =   -3.98 kcal/mol
DOCKED: USER        vdW + Hbond + desolv Energy     =   -3.83 kcal/mol
DOCKED: USER        Electrostatic Energy            =   -0.15 kcal/mol
DOCKED: USER    (2) Final Total Internal Energy     =   -0.80 kcal/mol
DOCKED: USER    (3) Torsional Free Energy           =   +0.89 kcal/mol
DOCKED: USER    (4) Unbound System's Energy  [=(2)] =   -0.80 kcal/mol
DOCKED: USER    
DOCKED: USER    
DOCKED: USER    NEWDPF move salicylic_acid.pdbqt
DOCKED: USER    NEWDPF about 3.280167 -0.485583 1.490167
DOCKED: USER    NEWDPF tran0 54.798183 11.266852 22.392197
DOCKED: USER    NEWDPF quaternion0 0.121968 -0.030074 -0.448576 0.884872
DOCKED: USER    NEWDPF axisangle0 0.261827 -0.064559 -0.962953 55.528355
DOCKED: USER    NEWDPF quat0 0.261827 -0.064559 -0.962953 55.528355
DOCKED: USER    NEWDPF dihe0 -33.95 -102.97 -36.30 
DOCKED: USER  keepresnum = 1 
DOCKED: USER  
DOCKED: REMARK SMILES O=C(O)c1ccccc1O
DOCKED: REMARK SMILES IDX 4 1 5 2 6 3 7 4 8 5 9 6 2 7 1 8 3 9 10 11
DOCKED: REMARK H PARENT 3 10 10 12
DOCKED: USER                              x       y       z     vdW  Elec       q    Type
DOCKED: USER                           _______ _______ _______ _____ _____    ______ ____
DOCKED: ROOT
DOCKED: ATOM      1  C   UNL     1      54.290  11.456  22.099 -0.29 -0.03    +0.101 A 
DOCKED: ATOM      2  C   UNL     1      53.396  12.521  22.287 -0.43 -0.01    +0.019 A 
DOCKED: ATOM      3  C   UNL     1      53.646  13.488  23.260 -0.37 -0.00    +0.001 A 
DOCKED: ATOM      4  C   UNL     1      54.798  13.409  24.039 -0.24 -0.00    +0.004 A 
DOCKED: ATOM      5  C   UNL     1      55.702  12.362  23.856 -0.14 -0.02    +0.047 A 
DOCKED: ATOM      6  C   UNL     1      55.442  11.387  22.891 -0.17 -0.04    +0.130 A 
DOCKED: ENDROOT
DOCKED: BRANCH   1   7
DOCKED: ATOM      7  C   UNL     1      53.958  10.461  21.043 -0.23 -0.07    +0.339 C 
DOCKED: ATOM      8  O   UNL     1      52.850  10.380  20.539 -0.55 +0.04    -0.246 OA
DOCKED: BRANCH   7   9
DOCKED: ATOM      9  O   UNL     1      54.963   9.610  20.742 -0.22 +0.21    -0.478 OA
DOCKED: ATOM     10  H   UNL     1      55.827  10.074  20.670 -0.42 -0.24    +0.297 HD
DOCKED: ENDBRANCH   7   9
DOCKED: ENDBRANCH   1   7
DOCKED: BRANCH   6  11
DOCKED: ATOM     11  O   UNL     1      56.321  10.346  22.734 -0.36 +0.16    -0.507 OA
DOCKED: ATOM     12  H   UNL     1      56.677  10.379  21.827 -0.40 -0.16    +0.293 HD
DOCKED: ENDBRANCH   6  11
DOCKED: TORSDOF 3
DOCKED: TER
DOCKED: ENDMDL
________________________________________________________________________________


	BEGINNING GENETIC ALGORITHM DOCKING 8 of 10
Run: 8 Seed: 977733012 338831428 [ Run 8 of 10 GA/GALS ]
Beginning LAMARCKIAN GENETIC ALGORITHM (LGA), with a maximum of 2500000 energy evaluations.

Final-Value: -4.850


	FINAL GENETIC ALGORITHM DOCKED STATE
	_______________________________________________


Detailed state:  trans 51.788 9.042 14.576 quatxyzw 0.093967 0.170215 0.927045 -0.320600 center 3.280 -0.486 1.490 ntor 3 26.4656 -131.7814 4.8659
State:	 51.788   9.042  14.576   0.099  0.180  0.979 -142.602     26.47 -131.78    4.87

DOCKED: MODEL        8
DOCKED: USER    Run = 8
DOCKED: USER    DPF = salicylic_acid.dpf
DOCKED: USER  
DOCKED: USER    Estimated Free Energy of Binding    =   -2.89 kcal/mol  [=(1)+(2)+(3)-(4)]
DOCKED: USER    Estimated Inhibition Constant, Ki   =    7.58 mM (millimolar)  [Temperature = 298.15 K]
DOCKED: USER    
DOCKED: USER    (1) Final Intermolecular Energy     =   -3.79 kcal/mol
DOCKED: USER        vdW + Hbond + desolv Energy     =   -2.34 kcal/mol
DOCKED: USER        Electrostatic Energy            =   -1.45 kcal/mol
DOCKED: USER    (2) Final Total Internal Energy     =   -1.06 kcal/mol
DOCKED: USER    (3) Torsional Free Energy           =   +0.89 kcal/mol
DOCKED: USER    (4) Unbound System's Energy  [=(2)] =   -1.06 kcal/mol
DOCKED: USER    
DOCKED: USER    
DOCKED: USER    NEWDPF move salicylic_acid.pdbqt
DOCKED: USER    NEWDPF about 3.280167 -0.485583 1.490167
DOCKED: USER    NEWDPF tran0 51.787703 9.042249 14.576001
DOCKED: USER    NEWDPF quaternion0 0.093967 0.170215 0.927045 -0.320600
DOCKED: USER    NEWDPF axisangle0 0.099203 0.179701 0.978706 -142.601560
DOCKED: USER    NEWDPF quat0 0.099203 0.179701 0.978706 -142.601560
DOCKED: USER    NEWDPF dihe0 26.47 -131.78 4.87 
DOCKED: USER  keepresnum = 1 
DOCKED: USER  
DOCKED: REMARK SMILES O=C(O)c1ccccc1O
DOCKED: REMARK SMILES IDX 4 1 5 2 6 3 7 4 8 5 9 6 2 7 1 8 3 9 10 11
DOCKED: REMARK H PARENT 3 10 10 12
DOCKED: USER                              x       y       z     vdW  Elec       q    Type
DOCKED: USER                           _______ _______ _______ _____ _____    ______ ____
DOCKED: ROOT
DOCKED: ATOM      1  C   UNL     1      51.491   8.503  14.590 -0.21 +0.01    +0.101 A 
DOCKED: ATOM      2  C   UNL     1      50.694   7.853  15.545 -0.13 -0.00    +0.019 A 
DOCKED: ATOM      3  C   UNL     1      50.346   8.499  16.731 -0.18 -0.00    +0.001 A 
DOCKED: ATOM      4  C   UNL     1      50.777   9.803  16.964 -0.36 -0.00    +0.004 A 
DOCKED: ATOM      5  C   UNL     1      51.561  10.466  16.019 -0.38 +0.02    +0.047 A 
DOCKED: ATOM      6  C   UNL     1      51.919   9.812  14.838 -0.40 +0.11    +0.130 A 
DOCKED: ENDROOT
DOCKED: BRANCH   1   7
DOCKED: ATOM      7  C   UNL     1      51.822   7.751  13.348 -0.08 -0.05    +0.339 C 
DOCKED: ATOM      8  O   UNL     1      51.113   6.861  12.908 -0.03 +0.06    -0.246 OA
DOCKED: BRANCH   7   9
DOCKED: ATOM      9  O   UNL     1      53.006   8.088  12.791 -0.08 +0.09    -0.478 OA
DOCKED: ATOM     10  H   UNL     1      53.582   8.575  13.421 -0.29 -0.00    +0.297 HD
DOCKED: ENDBRANCH   7   9
DOCKED: ENDBRANCH   1   7
DOCKED: BRANCH   6  11
DOCKED: ATOM     11  O   UNL     1      52.712  10.458  13.925 +0.15 -1.92    -0.507 OA
DOCKED: ATOM     12  H   UNL     1      52.459  10.159  13.032 -0.37 +0.24    +0.293 HD
DOCKED: ENDBRANCH   6  11
DOCKED: TORSDOF 3
DOCKED: TER
DOCKED: ENDMDL
________________________________________________________________________________


	BEGINNING GENETIC ALGORITHM DOCKING 9 of 10
Run: 9 Seed: 1501234521 1473874820 [ Run 9 of 10 GA/GALS ]
Beginning LAMARCKIAN GENETIC ALGORITHM (LGA), with a maximum of 2500000 energy evaluations.

Final-Value: -4.373


	FINAL GENETIC ALGORITHM DOCKED STATE
	_______________________________________________


Detailed state:  trans 61.367 10.786 10.128 quatxyzw 0.393549 -0.263647 0.537897 0.697335 center 3.280 -0.486 1.490 ntor 3 76.7099 166.6991 -60.6977
State:	 61.367  10.786  10.128   0.549 -0.368  0.750 91.573     76.71  166.70  -60.70

DOCKED: MODEL        9
DOCKED: USER    Run = 9
DOCKED: USER    DPF = salicylic_acid.dpf
DOCKED: USER  
DOCKED: USER    Estimated Free Energy of Binding    =   -2.61 kcal/mol  [=(1)+(2)+(3)-(4)]
DOCKED: USER    Estimated Inhibition Constant, Ki   =   12.27 mM (millimolar)  [Temperature = 298.15 K]
DOCKED: USER    
DOCKED: USER    (1) Final Intermolecular Energy     =   -3.50 kcal/mol
DOCKED: USER        vdW + Hbond + desolv Energy     =   -3.34 kcal/mol
DOCKED: USER        Electrostatic Energy            =   -0.16 kcal/mol
DOCKED: USER    (2) Final Total Internal Energy     =   -0.87 kcal/mol
DOCKED: USER    (3) Torsional Free Energy           =   +0.89 kcal/mol
DOCKED: USER    (4) Unbound System's Energy  [=(2)] =   -0.87 kcal/mol
DOCKED: USER    
DOCKED: USER    
DOCKED: USER    NEWDPF move salicylic_acid.pdbqt
DOCKED: USER    NEWDPF about 3.280167 -0.485583 1.490167
DOCKED: USER    NEWDPF tran0 61.366616 10.785842 10.128342
DOCKED: USER    NEWDPF quaternion0 0.393549 -0.263647 0.537897 0.697335
DOCKED: USER    NEWDPF axisangle0 0.549078 -0.367839 0.750472 91.572875
DOCKED: USER    NEWDPF quat0 0.549078 -0.367839 0.750472 91.572875
DOCKED: USER    NEWDPF dihe0 76.71 166.70 -60.70 
DOCKED: USER  keepresnum = 1 
DOCKED: USER  
DOCKED: REMARK SMILES O=C(O)c1ccccc1O
DOCKED: REMARK SMILES IDX 4 1 5 2 6 3 7 4 8 5 9 6 2 7 1 8 3 9 10 11
DOCKED: REMARK H PARENT 3 10 10 12
DOCKED: USER                              x       y       z     vdW  Elec       q    Type
DOCKED: USER                           _______ _______ _______ _____ _____    ______ ____
DOCKED: ROOT
DOCKED: ATOM      1  C   UNL     1      61.480  10.896   9.533 -0.31 -0.04    +0.101 A 
DOCKED: ATOM      2  C   UNL     1      62.644  10.907   8.748 -0.28 -0.01    +0.019 A 
DOCKED: ATOM      3  C   UNL     1      63.866  10.514   9.294 -0.27 -0.00    +0.001 A 
DOCKED: ATOM      4  C   UNL     1      63.931  10.091  10.619 -0.31 -0.00    +0.004 A 
DOCKED: ATOM      5  C   UNL     1      62.781  10.064  11.408 -0.37 -0.01    +0.047 A 
DOCKED: ATOM      6  C   UNL     1      61.561  10.471  10.864 -0.30 -0.05    +0.130 A 
DOCKED: ENDROOT
DOCKED: BRANCH   1   7
DOCKED: ATOM      7  C   UNL     1      60.212  11.329   8.884 -0.27 -0.17    +0.339 C 
DOCKED: ATOM      8  O   UNL     1      60.158  12.262   8.100 -0.43 +0.12    -0.246 OA
DOCKED: BRANCH   7   9
DOCKED: ATOM      9  O   UNL     1      59.118  10.649   9.289 -0.13 +0.27    -0.478 OA
DOCKED: ATOM     10  H   UNL     1      58.899  10.833  10.229 -0.34 -0.26    +0.297 HD
DOCKED: ENDBRANCH   7   9
DOCKED: ENDBRANCH   1   7
DOCKED: BRANCH   6  11
DOCKED: ATOM     11  O   UNL     1      60.439  10.469  11.652 -0.06 +0.21    -0.507 OA
DOCKED: ATOM     12  H   UNL     1      59.835  11.162  11.329 -0.27 -0.22    +0.293 HD
DOCKED: ENDBRANCH   6  11
DOCKED: TORSDOF 3
DOCKED: TER
DOCKED: ENDMDL
________________________________________________________________________________


	BEGINNING GENETIC ALGORITHM DOCKING 10 of 10
Run: 10 Seed: 976404654 465300511 [ Run 10 of 10 GA/GALS ]
Beginning LAMARCKIAN GENETIC ALGORITHM (LGA), with a maximum of 2500000 energy evaluations.

Final-Value: -5.168


	FINAL GENETIC ALGORITHM DOCKED STATE
	_______________________________________________


Detailed state:  trans 51.104 9.619 14.271 quatxyzw -0.156273 0.086760 -0.823834 0.537911 center 3.280 -0.486 1.490 ntor 3 -65.3908 138.1639 0.0083
State:	 51.104   9.619  14.271  -0.185  0.103 -0.977 114.917    -65.39  138.16    0.01

DOCKED: MODEL       10
DOCKED: USER    Run = 10
DOCKED: USER    DPF = salicylic_acid.dpf
DOCKED: USER  
DOCKED: USER    Estimated Free Energy of Binding    =   -3.25 kcal/mol  [=(1)+(2)+(3)-(4)]
DOCKED: USER    Estimated Inhibition Constant, Ki   =    4.18 mM (millimolar)  [Temperature = 298.15 K]
DOCKED: USER    
DOCKED: USER    (1) Final Intermolecular Energy     =   -4.14 kcal/mol
DOCKED: USER        vdW + Hbond + desolv Energy     =   -2.77 kcal/mol
DOCKED: USER        Electrostatic Energy            =   -1.37 kcal/mol
DOCKED: USER    (2) Final Total Internal Energy     =   -1.03 kcal/mol
DOCKED: USER    (3) Torsional Free Energy           =   +0.89 kcal/mol
DOCKED: USER    (4) Unbound System's Energy  [=(2)] =   -1.03 kcal/mol
DOCKED: USER    
DOCKED: USER    
DOCKED: USER    NEWDPF move salicylic_acid.pdbqt
DOCKED: USER    NEWDPF about 3.280167 -0.485583 1.490167
DOCKED: USER    NEWDPF tran0 51.103629 9.618639 14.270802
DOCKED: USER    NEWDPF quaternion0 -0.156273 0.086760 -0.823834 0.537911
DOCKED: USER    NEWDPF axisangle0 -0.185377 0.102919 -0.977263 114.916847
DOCKED: USER    NEWDPF quat0 -0.185377 0.102919 -0.977263 114.916847
DOCKED: USER    NEWDPF dihe0 -65.39 138.16 0.01 
DOCKED: USER  keepresnum = 1 
DOCKED: USER  
DOCKED: REMARK SMILES O=C(O)c1ccccc1O
DOCKED: REMARK SMILES IDX 4 1 5 2 6 3 7 4 8 5 9 6 2 7 1 8 3 9 10 11
DOCKED: REMARK H PARENT 3 10 10 12
DOCKED: USER                              x       y       z     vdW  Elec       q    Type
DOCKED: USER                           _______ _______ _______ _____ _____    ______ ____
DOCKED: ROOT
DOCKED: ATOM      1  C   UNL     1      50.589   9.361  14.052 -0.19 +0.01    +0.101 A 
DOCKED: ATOM      2  C   UNL     1      49.392   8.921  14.640 -0.12 -0.00    +0.019 A 
DOCKED: ATOM      3  C   UNL     1      49.153   9.139  15.997 -0.18 -0.00    +0.001 A 
DOCKED: ATOM      4  C   UNL     1      50.096   9.810  16.770 -0.33 -0.00    +0.004 A 
DOCKED: ATOM      5  C   UNL     1      51.285  10.263  16.197 -0.38 +0.01    +0.047 A 
DOCKED: ATOM      6  C   UNL     1      51.529  10.032  14.842 -0.37 +0.10    +0.130 A 
DOCKED: ENDROOT
DOCKED: BRANCH   1   7
DOCKED: ATOM      7  C   UNL     1      50.776   9.094  12.599 -0.12 -0.10    +0.339 C 
DOCKED: ATOM      8  O   UNL     1      49.843   8.876  11.843 -0.13 +0.10    -0.246 OA
DOCKED: BRANCH   7   9
DOCKED: ATOM      9  O   UNL     1      52.067   9.042  12.204 -0.10 +0.22    -0.478 OA
DOCKED: ATOM     10  H   UNL     1      52.473   9.935  12.159 -0.37 -0.26    +0.297 HD
DOCKED: ENDBRANCH   7   9
DOCKED: ENDBRANCH   1   7
DOCKED: BRANCH   6  11
DOCKED: ATOM     11  O   UNL     1      52.711  10.455  14.290 -0.08 -1.92    -0.507 OA
DOCKED: ATOM     12  H   UNL     1      53.162   9.683  13.902 -0.41 +0.47    +0.293 HD
DOCKED: ENDBRANCH   6  11
DOCKED: TORSDOF 3
DOCKED: TER
DOCKED: ENDMDL
________________________________________________________________________________

DPF> analysis


		CLUSTER ANALYSIS OF CONFORMATIONS
		_________________________________

Number of conformations = 10

RMSD cluster analysis will be performed using the ligand atoms only (12 / 12 total atoms).

Outputting structurally similar clusters, ranked in order of increasing energy.


________________________________________________________________________________

Number of distinct conformational clusters found = 3,  out of 10 runs,
Using an rmsd-tolerance of 2.0 A


	CLUSTERING HISTOGRAM
	____________________

________________________________________________________________________________
     |           |     |           |     |                                    
Clus | Lowest    | Run | Mean      | Num | Histogram                          
-ter | Binding   |     | Binding   | in  |                                    
Rank | Energy    |     | Energy    | Clus|    5    10   15   20   25   30   35
_____|___________|_____|___________|_____|____:____|____:____|____:____|____:___
   1 |     -3.25 |  10 |     -2.99 |   5 |#####
   2 |     -3.09 |   7 |     -2.91 |   2 |##
   3 |     -2.87 |   5 |     -2.75 |   3 |###
_____|___________|_____|___________|_____|______________________________________


Number of multi-member conformational clusters found = 3, out of 10 runs.

	RMSD TABLE
	__________

_____________________________________________________________________
     |      |      |           |         |                 |
Rank | Sub- | Run  | Binding   | Cluster | Reference       | Grep
     | Rank |      | Energy    | RMSD    | RMSD            | Pattern
_____|______|______|___________|_________|_________________|___________
   1      1     10       -3.25      0.00     49.60           RANKING
   1      2      3       -3.22      0.30     49.61           RANKING
   1      3      8       -2.89      1.37     50.23           RANKING
   1      4      6       -2.87      1.38     50.23           RANKING
   1      5      1       -2.72      1.46     49.36           RANKING
   2      1      7       -3.09      0.00     55.80           RANKING
   2      2      2       -2.73      1.32     56.01           RANKING
   3      1      5       -2.87      0.00     58.17           RANKING
   3      2      4       -2.77      1.60     56.88           RANKING
   3      3      9       -2.61      1.80     58.89           RANKING
_______________________________________________________________________



	INFORMATION ENTROPY ANALYSIS FOR THIS CLUSTERING
	________________________________________________


Information entropy for this clustering = 0.45  (rmstol = 2.00 Angstrom)

_______________________________________________________________________


	STATISTICAL MECHANICAL ANALYSIS
	_______________________________


Partition function, Q =    10.05            at Temperature, T = 298.15 K
Free energy,        A ~ -1367.14 kcal/mol   at Temperature, T = 298.15 K
Internal energy,    U =    -2.90 kcal/mol   at Temperature, T = 298.15 K
Entropy,            S =     4.58 kcal/mol/K at Temperature, T = 298.15 K

_______________________________________________________________________


	LOWEST ENERGY DOCKED CONFORMATION from EACH CLUSTER
	___________________________________________________



Keeping original residue number (specified in the input PDBQ file) for outputting.

MODEL       10
USER    Run = 10
USER    Cluster Rank = 1
USER    Number of conformations in this cluster = 5
USER  
USER    RMSD from reference structure       = 49.604 A
USER  
USER    Estimated Free Energy of Binding    =   -3.25 kcal/mol  [=(1)+(2)+(3)-(4)]
USER    Estimated Inhibition Constant, Ki   =    4.18 mM (millimolar)  [Temperature = 298.15 K]
USER    
USER    (1) Final Intermolecular Energy     =   -4.14 kcal/mol
USER        vdW + Hbond + desolv Energy     =   -2.77 kcal/mol
USER        Electrostatic Energy            =   -1.37 kcal/mol
USER    (2) Final Total Internal Energy     =   -1.03 kcal/mol
USER    (3) Torsional Free Energy           =   +0.89 kcal/mol
USER    (4) Unbound System's Energy  [=(2)] =   -1.03 kcal/mol
USER    
USER    
USER  
USER    DPF = salicylic_acid.dpf
USER    NEWDPF move	salicylic_acid.pdbqt
USER    NEWDPF about	3.280167 -0.485583 1.490167
USER    NEWDPF tran0	51.103629 9.618639 14.270802
USER    NEWDPF axisangle0	-0.185377 0.102919 -0.977263 114.916847
USER    NEWDPF quaternion0	-0.156273 0.086760 -0.823834 0.537911
USER    NEWDPF dihe0	-65.39 138.16 0.01 
USER  
USER                              x       y       z    vdW   Elec        q     RMS 
ATOM      1  C   UNL     1      50.589   9.361  14.052 -0.19 +0.01    +0.101    49.604
ATOM      2  C   UNL     1      49.392   8.921  14.640 -0.12 -0.00    +0.019    49.604
ATOM      3  C   UNL     1      49.153   9.139  15.997 -0.18 -0.00    +0.001    49.604
ATOM      4  C   UNL     1      50.096   9.810  16.770 -0.33 -0.00    +0.004    49.604
ATOM      5  C   UNL     1      51.285  10.263  16.197 -0.38 +0.01    +0.047    49.604
ATOM      6  C   UNL     1      51.529  10.032  14.842 -0.37 +0.10    +0.130    49.604
ATOM      7  C   UNL     1      50.776   9.094  12.599 -0.12 -0.10    +0.339    49.604
ATOM      8  O   UNL     1      49.843   8.876  11.843 -0.13 +0.10    -0.246    49.604
ATOM      9  O   UNL     1      52.067   9.042  12.204 -0.10 +0.22    -0.478    49.604
ATOM     10  H   UNL     1      52.473   9.935  12.159 -0.37 -0.26    +0.297    49.604
ATOM     11  O   UNL     1      52.711  10.455  14.290 -0.08 -1.92    -0.507    49.604
ATOM     12  H   UNL     1      53.162   9.683  13.902 -0.41 +0.47    +0.293    49.604
TER
ENDMDL
MODEL        7
USER    Run = 7
USER    Cluster Rank = 2
USER    Number of conformations in this cluster = 2
USER  
USER    RMSD from reference structure       = 55.804 A
USER  
USER    Estimated Free Energy of Binding    =   -3.09 kcal/mol  [=(1)+(2)+(3)-(4)]
USER    Estimated Inhibition Constant, Ki   =    5.48 mM (millimolar)  [Temperature = 298.15 K]
USER    
USER    (1) Final Intermolecular Energy     =   -3.98 kcal/mol
USER        vdW + Hbond + desolv Energy     =   -3.83 kcal/mol
USER        Electrostatic Energy            =   -0.15 kcal/mol
USER    (2) Final Total Internal Energy     =   -0.80 kcal/mol
USER    (3) Torsional Free Energy           =   +0.89 kcal/mol
USER    (4) Unbound System's Energy  [=(2)] =   -0.80 kcal/mol
USER    
USER    
USER  
USER    DPF = salicylic_acid.dpf
USER    NEWDPF move	salicylic_acid.pdbqt
USER    NEWDPF about	3.280167 -0.485583 1.490167
USER    NEWDPF tran0	54.798183 11.266852 22.392197
USER    NEWDPF axisangle0	0.261827 -0.064559 -0.962953 55.528355
USER    NEWDPF quaternion0	0.121968 -0.030074 -0.448576 0.884872
USER    NEWDPF dihe0	-33.95 -102.97 -36.30 
USER  
USER                              x       y       z    vdW   Elec        q     RMS 
ATOM      1  C   UNL     1      54.290  11.456  22.099 -0.29 -0.03    +0.101    55.804
ATOM      2  C   UNL     1      53.396  12.521  22.287 -0.43 -0.01    +0.019    55.804
ATOM      3  C   UNL     1      53.646  13.488  23.260 -0.37 -0.00    +0.001    55.804
ATOM      4  C   UNL     1      54.798  13.409  24.039 -0.24 -0.00    +0.004    55.804
ATOM      5  C   UNL     1      55.702  12.362  23.856 -0.14 -0.02    +0.047    55.804
ATOM      6  C   UNL     1      55.442  11.387  22.891 -0.17 -0.04    +0.130    55.804
ATOM      7  C   UNL     1      53.958  10.461  21.043 -0.23 -0.07    +0.339    55.804
ATOM      8  O   UNL     1      52.850  10.380  20.539 -0.55 +0.04    -0.246    55.804
ATOM      9  O   UNL     1      54.963   9.610  20.742 -0.22 +0.21    -0.478    55.804
ATOM     10  H   UNL     1      55.827  10.074  20.670 -0.42 -0.24    +0.297    55.804
ATOM     11  O   UNL     1      56.321  10.346  22.734 -0.36 +0.16    -0.507    55.804
ATOM     12  H   UNL     1      56.677  10.379  21.827 -0.40 -0.16    +0.293    55.804
TER
ENDMDL
MODEL        5
USER    Run = 5
USER    Cluster Rank = 3
USER    Number of conformations in this cluster = 3
USER  
USER    RMSD from reference structure       = 58.169 A
USER  
USER    Estimated Free Energy of Binding    =   -2.87 kcal/mol  [=(1)+(2)+(3)-(4)]
USER    Estimated Inhibition Constant, Ki   =    7.85 mM (millimolar)  [Temperature = 298.15 K]
USER    
USER    (1) Final Intermolecular Energy     =   -3.77 kcal/mol
USER        vdW + Hbond + desolv Energy     =   -3.53 kcal/mol
USER        Electrostatic Energy            =   -0.24 kcal/mol
USER    (2) Final Total Internal Energy     =   -0.84 kcal/mol
USER    (3) Torsional Free Energy           =   +0.89 kcal/mol
USER    (4) Unbound System's Energy  [=(2)] =   -0.84 kcal/mol
USER    
USER    
USER  
USER    DPF = salicylic_acid.dpf
USER    NEWDPF move	salicylic_acid.pdbqt
USER    NEWDPF about	3.280167 -0.485583 1.490167
USER    NEWDPF tran0	60.448362 10.865746 9.236462
USER    NEWDPF axisangle0	-0.566834 -0.817134 0.104839 175.309784
USER    NEWDPF quaternion0	-0.566359 -0.816450 0.104751 0.040918
USER    NEWDPF dihe0	11.92 -114.96 -67.71 
USER  
USER                              x       y       z    vdW   Elec        q     RMS 
ATOM      1  C   UNL     1      61.029  11.006   9.389 -0.34 -0.04    +0.101    58.169
ATOM      2  C   UNL     1      62.106  11.583   8.699 -0.35 -0.01    +0.019    58.169
ATOM      3  C   UNL     1      61.933  12.074   7.406 -0.35 -0.00    +0.001    58.169
ATOM      4  C   UNL     1      60.681  12.009   6.799 -0.38 -0.00    +0.004    58.169
ATOM      5  C   UNL     1      59.598  11.448   7.477 -0.40 -0.02    +0.047    58.169
ATOM      6  C   UNL     1      59.776  10.943   8.767 -0.31 -0.06    +0.130    58.169
ATOM      7  C   UNL     1      61.288  10.502  10.766 -0.23 -0.13    +0.339    58.169
ATOM      8  O   UNL     1      62.258   9.817  11.046 -0.28 +0.07    -0.246    58.169
ATOM      9  O   UNL     1      60.324  10.807  11.662 -0.17 +0.24    -0.478    58.169
ATOM     10  H   UNL     1      59.576  11.289  11.246 -0.26 -0.29    +0.297    58.169
ATOM     11  O   UNL     1      58.715  10.369   9.417 -0.10 +0.28    -0.507    58.169
ATOM     12  H   UNL     1      58.655  10.758  10.309 -0.37 -0.27    +0.293    58.169
TER
ENDMDL


AVSFLD: # AVS field file
AVSFLD: #
AVSFLD: # Created by AutoDock
AVSFLD: #
AVSFLD: ndim=2           # number of dimensions in the field
AVSFLD: nspace=1         # number of physical coordinates
AVSFLD: veclen=7         # vector size
AVSFLD: dim1=12          # atoms
AVSFLD: dim2=3           # conformations
AVSFLD: data=Real       # data type (byte,integer,Real,double)
AVSFLD: field=uniform    # field coordinate layout
AVSFLD: label= x y z vdW Elec q RMS
AVSFLD: variable 1 file = salicylic_acid.dlg.pdb filetype = ascii offset = 5 stride = 12
AVSFLD: variable 2 file = salicylic_acid.dlg.pdb filetype = ascii offset = 6 stride = 12
AVSFLD: variable 3 file = salicylic_acid.dlg.pdb filetype = ascii offset = 7 stride = 12
AVSFLD: variable 4 file = salicylic_acid.dlg.pdb filetype = ascii offset = 8 stride = 12
AVSFLD: variable 5 file = salicylic_acid.dlg.pdb filetype = ascii offset = 9 stride = 12
AVSFLD: variable 6 file = salicylic_acid.dlg.pdb filetype = ascii offset = 10 stride = 12
AVSFLD: variable 7 file = salicylic_acid.dlg.pdb filetype = ascii offset = 11 stride = 12
AVSFLD: # end of file

>>> Closing the docking parameter file (DPF)...
This docking finished at:			4:21 41" p.m., 09/11/2026


________________________________________________________________________________

autodock4: Successful Completion on "VP"

Real= 51.43s,  CPU= 51.35s,  System= 0.05s
________________________________________________________________________________

