          AutoDock 4.2 Release 4.2.6   
         (C) 1989-2012 The Scripps Research Institute
        AutoDock comes with ABSOLUTELY NO WARRANTY.
        AutoDock is free software, and you are welcome
        to redistribute it under certain conditions;
        for details type 'autodock4 -C'

                     main.cc  $Revision: 1.213 $

                   Compiled on Dec 11 2024 at 15:52:35


This file was created at:			0:20 07" a.m., 09/14/2026
                   on host:		"VP"
Current Working Directory = "/home/vishishtaapandit28/docking-pipeline-project/results/1HSG/ad4_grids"

      ________________________________________________________________

                   SETTING UP DEFAULT PARAMETER LIBRARY
      ________________________________________________________________


Random number generator was seeded with values 96284, 1789325407.
Docking parameter file (DPF) used for this docking:		EGTA.dpf
DPF> autodock_parameter_version 4.2

	Autodock parameter version 4.2.
DPF> outlev 1

Output Level = 1  ADT-COMPATIBLE OUTPUT DURING DOCKING.
DPF> intelec

Electrostatic energies will be calculated for all non-bonds between moving atoms.
DPF> seed pid time

Random number generator was seeded with values 96284, 1789325407.
DPF> ligand_types C HD NA OA

DPF> fld receptor.maps.fld

Opening Grid Map Dimensions file:		receptor.maps.fld
Grid Point Spacing =				0.375 Angstroms

Even Number of User-specified Grid Points =	62 x-points
						48 y-points
						46 z-points

Coordinates of Central Grid Point of Maps =	(13.073, 22.467, 5.557)
Macromolecule file used to create Grid Maps =	receptor.pdbqt
Grid Parameter file used to create Grid Maps =	receptor.gpf
Minimum coordinates in grid = (1.448, 13.467, -3.068)
Maximum coordinates in grid = (24.698, 31.467, 14.182)

DPF> map receptor.C.map

DPF> map receptor.HD.map

DPF> map receptor.NA.map

DPF> map receptor.OA.map

DPF> elecmap receptor.e.map

DPF> desolvmap receptor.d.map

DPF> move EGTA.pdbqt

1,4-interactions will be _ignored_ in the non-bonded internal energy calculation.

Ligand PDBQT file = "EGTA.pdbqt"

INPUT LIGAND PDBQT FILE:
________________________

INPUT-LIGAND-PDBQT: REMARK SMILES O=C(O)CN(CCOCCOCCN(CC(=O)O)CC(=O)O)CC(=O)O
INPUT-LIGAND-PDBQT: REMARK SMILES IDX 9 1 8 2 7 3 6 4 5 5 4 6 2 7 1 8 3 9 23 11 24 12 25 13 26 14
INPUT-LIGAND-PDBQT: REMARK SMILES IDX 10 16 11 17 12 18 13 19 14 20 15 21 16 22 17 23 18 24 19 26
INPUT-LIGAND-PDBQT: REMARK SMILES IDX 20 27 21 28 22 29
INPUT-LIGAND-PDBQT: REMARK H PARENT 3 10 26 15 18 25 22 30
INPUT-LIGAND-PDBQT: ROOT
INPUT-LIGAND-PDBQT: ATOM      1  C   UNL     1       9.093  -1.318   2.458  1.00  0.00    +0.188 C 
INPUT-LIGAND-PDBQT: ENDROOT
INPUT-LIGAND-PDBQT: BRANCH   1   2
INPUT-LIGAND-PDBQT: ATOM      2  O   UNL     1       7.681  -1.512   2.658  1.00  0.00    -0.378 OA
INPUT-LIGAND-PDBQT: BRANCH   2   3
INPUT-LIGAND-PDBQT: ATOM      3  C   UNL     1       6.902  -0.893   1.617  1.00  0.00    +0.175 C 
INPUT-LIGAND-PDBQT: BRANCH   3   4
INPUT-LIGAND-PDBQT: ATOM      4  C   UNL     1       5.383  -1.082   1.867  1.00  0.00    +0.114 C 
INPUT-LIGAND-PDBQT: BRANCH   4   5
INPUT-LIGAND-PDBQT: ATOM      5  N   UNL     1       4.787  -0.375   3.043  1.00  0.00    -0.280 NA
INPUT-LIGAND-PDBQT: BRANCH   5   6
INPUT-LIGAND-PDBQT: ATOM      6  C   UNL     1       3.310  -0.682   3.051  1.00  0.00    +0.208 C 
INPUT-LIGAND-PDBQT: BRANCH   6   7
INPUT-LIGAND-PDBQT: ATOM      7  C   UNL     1       2.555   0.111   4.119  1.00  0.00    +0.317 C 
INPUT-LIGAND-PDBQT: ATOM      8  O   UNL     1       1.515  -0.244   4.645  1.00  0.00    -0.251 OA
INPUT-LIGAND-PDBQT: BRANCH   7   9
INPUT-LIGAND-PDBQT: ATOM      9  O   UNL     1       3.150   1.304   4.386  1.00  0.00    -0.480 OA
INPUT-LIGAND-PDBQT: ATOM     10  H   UNL     1       3.968   1.365   3.846  1.00  0.00    +0.296 HD
INPUT-LIGAND-PDBQT: ENDBRANCH   7   9
INPUT-LIGAND-PDBQT: ENDBRANCH   6   7
INPUT-LIGAND-PDBQT: ENDBRANCH   5   6
INPUT-LIGAND-PDBQT: BRANCH   5  11
INPUT-LIGAND-PDBQT: ATOM     11  C   UNL     1       5.404  -0.769   4.345  1.00  0.00    +0.208 C 
INPUT-LIGAND-PDBQT: BRANCH  11  12
INPUT-LIGAND-PDBQT: ATOM     12  C   UNL     1       5.264  -2.246   4.672  1.00  0.00    +0.317 C 
INPUT-LIGAND-PDBQT: ATOM     13  O   UNL     1       4.382  -2.720   5.371  1.00  0.00    -0.251 OA
INPUT-LIGAND-PDBQT: BRANCH  12  14
INPUT-LIGAND-PDBQT: ATOM     14  O   UNL     1       6.171  -3.017   4.049  1.00  0.00    -0.480 OA
INPUT-LIGAND-PDBQT: ATOM     15  H   UNL     1       6.841  -2.482   3.556  1.00  0.00    +0.296 HD
INPUT-LIGAND-PDBQT: ENDBRANCH  12  14
INPUT-LIGAND-PDBQT: ENDBRANCH  11  12
INPUT-LIGAND-PDBQT: ENDBRANCH   5  11
INPUT-LIGAND-PDBQT: ENDBRANCH   4   5
INPUT-LIGAND-PDBQT: ENDBRANCH   3   4
INPUT-LIGAND-PDBQT: ENDBRANCH   2   3
INPUT-LIGAND-PDBQT: ENDBRANCH   1   2
INPUT-LIGAND-PDBQT: BRANCH   1  16
INPUT-LIGAND-PDBQT: ATOM     16  C   UNL     1       9.858  -1.792   3.701  1.00  0.00    +0.188 C 
INPUT-LIGAND-PDBQT: BRANCH  16  17
INPUT-LIGAND-PDBQT: ATOM     17  O   UNL     1       9.736  -3.220   3.867  1.00  0.00    -0.378 OA
INPUT-LIGAND-PDBQT: BRANCH  17  18
INPUT-LIGAND-PDBQT: ATOM     18  C   UNL     1      10.358  -3.638   5.102  1.00  0.00    +0.175 C 
INPUT-LIGAND-PDBQT: BRANCH  18  19
INPUT-LIGAND-PDBQT: ATOM     19  C   UNL     1      10.197  -5.160   5.362  1.00  0.00    +0.114 C 
INPUT-LIGAND-PDBQT: BRANCH  19  20
INPUT-LIGAND-PDBQT: ATOM     20  N   UNL     1       8.829  -5.577   5.774  1.00  0.00    -0.280 NA
INPUT-LIGAND-PDBQT: BRANCH  20  21
INPUT-LIGAND-PDBQT: ATOM     21  C   UNL     1       7.833  -5.363   4.696  1.00  0.00    +0.208 C 
INPUT-LIGAND-PDBQT: BRANCH  21  22
INPUT-LIGAND-PDBQT: ATOM     22  C   UNL     1       8.126  -6.072   3.376  1.00  0.00    +0.317 C 
INPUT-LIGAND-PDBQT: ATOM     23  O   UNL     1       7.793  -7.222   3.125  1.00  0.00    -0.251 OA
INPUT-LIGAND-PDBQT: BRANCH  22  24
INPUT-LIGAND-PDBQT: ATOM     24  O   UNL     1       8.851  -5.325   2.505  1.00  0.00    -0.480 OA
INPUT-LIGAND-PDBQT: ATOM     25  H   UNL     1       9.119  -4.457   2.888  1.00  0.00    +0.296 HD
INPUT-LIGAND-PDBQT: ENDBRANCH  22  24
INPUT-LIGAND-PDBQT: ENDBRANCH  21  22
INPUT-LIGAND-PDBQT: ENDBRANCH  20  21
INPUT-LIGAND-PDBQT: BRANCH  20  26
INPUT-LIGAND-PDBQT: ATOM     26  C   UNL     1       8.773  -7.011   6.188  1.00  0.00    +0.208 C 
INPUT-LIGAND-PDBQT: BRANCH  26  27
INPUT-LIGAND-PDBQT: ATOM     27  C   UNL     1       9.479  -7.209   7.527  1.00  0.00    +0.317 C 
INPUT-LIGAND-PDBQT: ATOM     28  O   UNL     1       9.986  -8.253   7.902  1.00  0.00    -0.251 OA
INPUT-LIGAND-PDBQT: BRANCH  27  29
INPUT-LIGAND-PDBQT: ATOM     29  O   UNL     1       9.445  -6.085   8.292  1.00  0.00    -0.480 OA
INPUT-LIGAND-PDBQT: ATOM     30  H   UNL     1       8.986  -5.390   7.766  1.00  0.00    +0.296 HD
INPUT-LIGAND-PDBQT: ENDBRANCH  27  29
INPUT-LIGAND-PDBQT: ENDBRANCH  26  27
INPUT-LIGAND-PDBQT: ENDBRANCH  20  26
INPUT-LIGAND-PDBQT: ENDBRANCH  19  20
INPUT-LIGAND-PDBQT: ENDBRANCH  18  19
INPUT-LIGAND-PDBQT: ENDBRANCH  17  18
INPUT-LIGAND-PDBQT: ENDBRANCH  16  17
INPUT-LIGAND-PDBQT: ENDBRANCH   1  16
INPUT-LIGAND-PDBQT: TORSDOF 21
________________________________________________________________________________

Total charge on ligand                               =	-0.002 e
REMARK SMILES O=C(O)CN(CCOCCOCCN(CC(=O)O)CC(=O)O)CC(=O)O
REMARK SMILES IDX 9 1 8 2 7 3 6 4 5 5 4 6 2 7 1 8 3 9 23 11 24 12 25 13 26 14
REMARK SMILES IDX 10 16 11 17 12 18 13 19 14 20 15 21 16 22 17 23 18 24 19 26
REMARK SMILES IDX 20 27 21 28 22 29
REMARK H PARENT 3 10 26 15 18 25 22 30


Number of Rotatable Bonds in Small Molecule =	21 torsions
Number of atoms in ligand:  30

Number of non-hydrogen atoms in ligand:  26

Number of vibrational degrees of freedom of ligand:  84


Number of torsional degrees of freedom = 21
Estimated loss of torsional free energy upon binding = +6.2643 kcal/mol


DPF> about 7.125833333333333 -3.2111333333333336 4.3918

Small molecule center of rotation =	(+7.126, -3.211, +4.392)

DPF> tran0 random

Initial translation =			(11.196, 15.980, -1.785) Angstroms
DPF> quat0 random

Each run will begin with a new, random initial orientation.
Initial quaternion,  (x,y,z,w) =	( -0.255, 0.163, -0.911, 0.281 ),
DPF> dihe0 random

DPF> tstep 2.0

Initial simanneal cycle, maximum translation step = +/- 2.0 Angstroms
DPF> qstep 50.0

Initial simanneal cycle, maximum quaternion angle step = +/- 50.0 deg
DPF> dstep 50.0

Initial simanneal cycle, maximum torsion angle step = +/- 50.0 deg
DPF> torsdof 21

Number of torsional degrees of freedom = 21
Free energy coefficient for torsional degrees of freedom = 0.2983, the factory default value.

Estimated loss of torsional free energy upon binding = +6.2643 kcal/mol

DPF> rmstol 2.0

Maximum RMS tolerance for conformational cluster analysis = 2.00 Angstroms
DPF> extnrg 1000.0

External grid energy (beyond grid map walls) = 1000.00

DPF> e0max 0.0 10000

Using user-specified maximum number of retries for simanneal initialization, 10000 retries.
If the simanneal initial energy is greater than e0max, 0.000,
then a new, random initial state will be created.

DPF> ga_pop_size 150

A population of 150 individuals will be used
DPF> ga_num_evals 2500000

There will be at most 2500000 function evaluations used.
DPF> ga_num_generations 27000

The GA will run for at most 27000 generations.
DPF> ga_elitism 1

The 1 best will be preserved each GA generation.
DPF> ga_mutation_rate 0.02

The mutation rate is 0.020000.
DPF> ga_crossover_rate 0.8

The crossover rate is 0.800000.
DPF> ga_window_size 10

The GA's selection window is 10 generations.
DPF> ga_cauchy_alpha 0.0

The alpha parameter (for the Cauchy distribution) is being set to 0.000000.
DPF> ga_cauchy_beta 1.0

The beta parameter (for the Cauchy distribution) is being set to 1.000000.
DPF> set_ga

DPF> sw_max_its 300

Solis & Wets algorithms will perform at most 300 iterations.
DPF> sw_max_succ 4

Solis & Wets algorithms expand rho every 4 in a row successes.
DPF> sw_max_fail 4

Solis & Wets algorithms contract rho every 4 in a row failures.
DPF> sw_rho 1.0

rho is set to 1.000000.
DPF> sw_lb_rho 0.01

rho will never get smaller than 0.010000.
DPF> ls_search_freq 0.06

Local search will be performed with frequency 0.060000.
DPF> set_psw1

Creating a new Local Search object using the pseudo-Solis-Wets algorithm (pSW1) with the current settings.

DPF> unbound_model bound

DPF> ga_run 10

centering ligand on specified point: 7.126 -3.211 4.392
Furthest true ligand atom from "about" center is 6.777 Angstroms (maxrad).
Number of requested GA dockings = 10 runs
Unbound model to be used is 'same as bound' [AutoDock 4.2 default].

	BEGINNING GENETIC ALGORITHM DOCKING 1 of 10
Run: 1 Seed: 2092703713 945192042 [ Run 1 of 10 GA/GALS ]
Beginning LAMARCKIAN GENETIC ALGORITHM (LGA), with a maximum of 2500000 energy evaluations.

Final-Value: -13.825


	FINAL GENETIC ALGORITHM DOCKED STATE
	_______________________________________________


Detailed state:  trans 10.005 27.640 8.248 quatxyzw -0.245025 -0.194982 -0.902726 -0.295008 center 7.126 -3.211 4.392 ntor 21 50.8716 87.0836 73.5774 18.3323 -159.6665 121.9771 -12.4620 -72.8357 64.0633 -117.4746 -168.4285 129.0484 160.3634 -138.9712 -115.9768 86.7716 -43.4787 -42.0533 -105.7804 76.8708 -9.2409
State:	 10.005  27.640   8.248  -0.256 -0.204 -0.945 -145.684     50.87   87.08   73.58   18.33 -159.67  121.98  -12.46  -72.84   64.06 -117.47 -168.43  129.05  160.36 -138.97 -115.98   86.77  -43.48  -42.05 -105.78   76.87   -9.24

DOCKED: MODEL        1
DOCKED: USER    Run = 1
DOCKED: USER    DPF = EGTA.dpf
DOCKED: USER  
DOCKED: USER    Estimated Free Energy of Binding    =   -3.21 kcal/mol  [=(1)+(2)+(3)-(4)]
DOCKED: USER    Estimated Inhibition Constant, Ki   =    4.43 mM (millimolar)  [Temperature = 298.15 K]
DOCKED: USER    
DOCKED: USER    (1) Final Intermolecular Energy     =   -9.48 kcal/mol
DOCKED: USER        vdW + Hbond + desolv Energy     =   -8.62 kcal/mol
DOCKED: USER        Electrostatic Energy            =   -0.86 kcal/mol
DOCKED: USER    (2) Final Total Internal Energy     =   -4.35 kcal/mol
DOCKED: USER    (3) Torsional Free Energy           =   +6.26 kcal/mol
DOCKED: USER    (4) Unbound System's Energy  [=(2)] =   -4.35 kcal/mol
DOCKED: USER    
DOCKED: USER    
DOCKED: USER    NEWDPF move EGTA.pdbqt
DOCKED: USER    NEWDPF about 7.125833 -3.211133 4.391800
DOCKED: USER    NEWDPF tran0 10.004918 27.640369 8.248404
DOCKED: USER    NEWDPF quaternion0 -0.245025 -0.194982 -0.902726 -0.295008
DOCKED: USER    NEWDPF axisangle0 -0.256438 -0.204064 -0.944774 -145.683957
DOCKED: USER    NEWDPF quat0 -0.256438 -0.204064 -0.944774 -145.683957
DOCKED: USER    NEWDPF dihe0 50.87 87.08 73.58 18.33 -159.67 121.98 -12.46 -72.84 64.06 -117.47 -168.43 129.05 160.36 -138.97 -115.98 86.77 -43.48 -42.05 -105.78 76.87 -9.24 
DOCKED: USER  keepresnum = 1 
DOCKED: USER  
DOCKED: REMARK SMILES O=C(O)CN(CCOCCOCCN(CC(=O)O)CC(=O)O)CC(=O)O
DOCKED: REMARK SMILES IDX 9 1 8 2 7 3 6 4 5 5 4 6 2 7 1 8 3 9 23 11 24 12 25 13 26 14
DOCKED: REMARK SMILES IDX 10 16 11 17 12 18 13 19 14 20 15 21 16 22 17 23 18 24 19 26
DOCKED: REMARK SMILES IDX 20 27 21 28 22 29
DOCKED: REMARK H PARENT 3 10 26 15 18 25 22 30
DOCKED: USER                              x       y       z     vdW  Elec       q    Type
DOCKED: USER                           _______ _______ _______ _____ _____    ______ ____
DOCKED: ROOT
DOCKED: ATOM      1  C   UNL     1       9.173  24.401   8.183 -0.18 -0.04    +0.188 C 
DOCKED: ENDROOT
DOCKED: BRANCH   1   2
DOCKED: ATOM      2  O   UNL     1      10.113  25.263   7.517 -0.14 +0.10    -0.378 OA
DOCKED: BRANCH   2   3
DOCKED: ATOM      3  C   UNL     1      11.340  25.393   8.259 -0.31 -0.06    +0.175 C 
DOCKED: BRANCH   3   4
DOCKED: ATOM      4  C   UNL     1      12.572  25.334   7.319 -0.35 -0.08    +0.114 C 
DOCKED: BRANCH   4   5
DOCKED: ATOM      5  N   UNL     1      12.620  24.222   6.318 -0.12 +0.18    -0.280 NA
DOCKED: BRANCH   5   6
DOCKED: ATOM      6  C   UNL     1      11.704  23.131   6.814 -0.28 -0.04    +0.208 C 
DOCKED: BRANCH   6   7
DOCKED: ATOM      7  C   UNL     1      12.471  21.896   7.289 -0.18 +0.03    +0.317 C 
DOCKED: ATOM      8  O   UNL     1      13.444  21.919   8.021 -0.46 +0.00    -0.251 OA
DOCKED: BRANCH   7   9
DOCKED: ATOM      9  O   UNL     1      11.975  20.749   6.753 -1.03 -0.20    -0.480 OA
DOCKED: ATOM     10  H   UNL     1      11.873  20.883   5.785 +0.16 +0.04    +0.296 HD
DOCKED: ENDBRANCH   7   9
DOCKED: ENDBRANCH   6   7
DOCKED: ENDBRANCH   5   6
DOCKED: BRANCH   5  11
DOCKED: ATOM     11  C   UNL     1      12.221  24.647   4.943 -0.25 -0.17    +0.208 C 
DOCKED: BRANCH  11  12
DOCKED: ATOM     12  C   UNL     1      12.216  23.518   3.926 -0.18 -0.23    +0.317 C 
DOCKED: ATOM     13  O   UNL     1      12.047  22.340   4.200 -0.22 +0.10    -0.251 OA
DOCKED: BRANCH  12  14
DOCKED: ATOM     14  O   UNL     1      12.340  23.944   2.658 -0.11 +0.54    -0.480 OA
DOCKED: ATOM     15  H   UNL     1      13.282  23.949   2.356 -0.32 -0.72    +0.296 HD
DOCKED: ENDBRANCH  12  14
DOCKED: ENDBRANCH  11  12
DOCKED: ENDBRANCH   5  11
DOCKED: ENDBRANCH   4   5
DOCKED: ENDBRANCH   3   4
DOCKED: ENDBRANCH   2   3
DOCKED: ENDBRANCH   1   2
DOCKED: BRANCH   1  16
DOCKED: ATOM     16  C   UNL     1       8.742  25.039   9.510 -0.43 -0.02    +0.188 C 
DOCKED: BRANCH  16  17
DOCKED: ATOM     17  O   UNL     1       8.176  26.348   9.292 -0.24 +0.07    -0.378 OA
DOCKED: BRANCH  17  18
DOCKED: ATOM     18  C   UNL     1       9.167  27.371   9.534 -0.41 -0.04    +0.175 C 
DOCKED: BRANCH  18  19
DOCKED: ATOM     19  C   UNL     1       9.167  28.469   8.436 -0.51 -0.04    +0.114 C 
DOCKED: BRANCH  19  20
DOCKED: ATOM     20  N   UNL     1       7.982  28.444   7.536 -0.34 +0.15    -0.280 NA
DOCKED: BRANCH  20  21
DOCKED: ATOM     21  C   UNL     1       8.033  27.313   6.578 -0.28 -0.08    +0.208 C 
DOCKED: BRANCH  21  22
DOCKED: ATOM     22  C   UNL     1       8.253  27.694   5.116 -0.21 -0.15    +0.317 C 
DOCKED: ATOM     23  O   UNL     1       9.323  28.071   4.659 -0.80 +0.12    -0.251 OA
DOCKED: BRANCH  22  24
DOCKED: ATOM     24  O   UNL     1       7.127  27.633   4.361 -0.10 +0.20    -0.480 OA
DOCKED: ATOM     25  H   UNL     1       6.532  28.405   4.512 -0.15 -0.26    +0.296 HD
DOCKED: ENDBRANCH  22  24
DOCKED: ENDBRANCH  21  22
DOCKED: ENDBRANCH  20  21
DOCKED: BRANCH  20  26
DOCKED: ATOM     26  C   UNL     1       6.696  28.363   8.291 -0.19 -0.15    +0.208 C 
DOCKED: BRANCH  26  27
DOCKED: ATOM     27  C   UNL     1       5.578  27.846   7.390 -0.21 -0.11    +0.317 C 
DOCKED: ATOM     28  O   UNL     1       4.784  26.970   7.693 -0.76 -0.01    -0.251 OA
DOCKED: BRANCH  27  29
DOCKED: ATOM     29  O   UNL     1       5.586  28.449   6.171 -0.07 +0.25    -0.480 OA
DOCKED: ATOM     30  H   UNL     1       6.466  28.879   6.066 +0.04 -0.25    +0.296 HD
DOCKED: ENDBRANCH  27  29
DOCKED: ENDBRANCH  26  27
DOCKED: ENDBRANCH  20  26
DOCKED: ENDBRANCH  19  20
DOCKED: ENDBRANCH  18  19
DOCKED: ENDBRANCH  17  18
DOCKED: ENDBRANCH  16  17
DOCKED: ENDBRANCH   1  16
DOCKED: TORSDOF 21
DOCKED: TER
DOCKED: ENDMDL
________________________________________________________________________________


	BEGINNING GENETIC ALGORITHM DOCKING 2 of 10
Run: 2 Seed: 900405864 299853425 [ Run 2 of 10 GA/GALS ]
Beginning LAMARCKIAN GENETIC ALGORITHM (LGA), with a maximum of 2500000 energy evaluations.

Final-Value: -11.229


	FINAL GENETIC ALGORITHM DOCKED STATE
	_______________________________________________


Detailed state:  trans 8.647 27.714 5.645 quatxyzw 0.561073 -0.654497 -0.039455 -0.505247 center 7.126 -3.211 4.392 ntor 21 -147.6434 -180.0000 58.6065 17.9767 82.4774 -161.9268 21.2759 36.7074 -105.6493 179.4803 -179.9831 50.7967 -55.8580 111.8122 -164.0160 34.1544 -66.5610 28.8407 -162.7665 75.7276 27.1760
State:	  8.647  27.714   5.645   0.650 -0.758 -0.046 -119.304   -147.64 -180.00   58.61   17.98   82.48 -161.93   21.28   36.71 -105.65  179.48 -179.98   50.80  -55.86  111.81 -164.02   34.15  -66.56   28.84 -162.77   75.73   27.18

DOCKED: MODEL        2
DOCKED: USER    Run = 2
DOCKED: USER    DPF = EGTA.dpf
DOCKED: USER  
DOCKED: USER    Estimated Free Energy of Binding    =   -1.63 kcal/mol  [=(1)+(2)+(3)-(4)]
DOCKED: USER    Estimated Inhibition Constant, Ki   =   64.08 mM (millimolar)  [Temperature = 298.15 K]
DOCKED: USER    
DOCKED: USER    (1) Final Intermolecular Energy     =   -7.89 kcal/mol
DOCKED: USER        vdW + Hbond + desolv Energy     =   -7.42 kcal/mol
DOCKED: USER        Electrostatic Energy            =   -0.47 kcal/mol
DOCKED: USER    (2) Final Total Internal Energy     =   -3.34 kcal/mol
DOCKED: USER    (3) Torsional Free Energy           =   +6.26 kcal/mol
DOCKED: USER    (4) Unbound System's Energy  [=(2)] =   -3.34 kcal/mol
DOCKED: USER    
DOCKED: USER    
DOCKED: USER    NEWDPF move EGTA.pdbqt
DOCKED: USER    NEWDPF about 7.125833 -3.211133 4.391800
DOCKED: USER    NEWDPF tran0 8.647021 27.714473 5.644947
DOCKED: USER    NEWDPF quaternion0 0.561073 -0.654497 -0.039455 -0.505247
DOCKED: USER    NEWDPF axisangle0 0.650162 -0.758419 -0.045720 -119.304493
DOCKED: USER    NEWDPF quat0 0.650162 -0.758419 -0.045720 -119.304493
DOCKED: USER    NEWDPF dihe0 -147.64 -180.00 58.61 17.98 82.48 -161.93 21.28 36.71 -105.65 179.48 -179.98 50.80 -55.86 111.81 -164.02 34.15 -66.56 28.84 -162.77 75.73 27.18 
DOCKED: USER  keepresnum = 1 
DOCKED: USER  
DOCKED: REMARK SMILES O=C(O)CN(CCOCCOCCN(CC(=O)O)CC(=O)O)CC(=O)O
DOCKED: REMARK SMILES IDX 9 1 8 2 7 3 6 4 5 5 4 6 2 7 1 8 3 9 23 11 24 12 25 13 26 14
DOCKED: REMARK SMILES IDX 10 16 11 17 12 18 13 19 14 20 15 21 16 22 17 23 18 24 19 26
DOCKED: REMARK SMILES IDX 20 27 21 28 22 29
DOCKED: REMARK H PARENT 3 10 26 15 18 25 22 30
DOCKED: USER                              x       y       z     vdW  Elec       q    Type
DOCKED: USER                           _______ _______ _______ _____ _____    ______ ____
DOCKED: ROOT
DOCKED: ATOM      1  C   UNL     1       8.972  27.883   8.970 -0.46 -0.06    +0.188 C 
DOCKED: ENDROOT
DOCKED: BRANCH   1   2
DOCKED: ATOM      2  O   UNL     1       8.768  28.802   7.882 -0.77 +0.15    -0.378 OA
DOCKED: BRANCH   2   3
DOCKED: ATOM      3  C   UNL     1       8.049  28.192   6.793 -0.35 -0.08    +0.175 C 
DOCKED: BRANCH   3   4
DOCKED: ATOM      4  C   UNL     1       6.663  28.859   6.595 -0.27 -0.09    +0.114 C 
DOCKED: BRANCH   4   5
DOCKED: ATOM      5  N   UNL     1       5.484  28.196   7.235 -0.17 +0.12    -0.280 NA
DOCKED: BRANCH   5   6
DOCKED: ATOM      6  C   UNL     1       4.838  29.210   8.146 -0.03 -0.14    +0.208 C 
DOCKED: BRANCH   6   7
DOCKED: ATOM      7  C   UNL     1       3.934  30.183   7.389 -0.11 -0.12    +0.317 C 
DOCKED: ATOM      8  O   UNL     1       4.327  31.059   6.639 -0.16 +0.14    -0.251 OA
DOCKED: BRANCH   7   9
DOCKED: ATOM      9  O   UNL     1       2.620  30.000   7.689 -0.02 -0.06    -0.480 OA
DOCKED: ATOM     10  H   UNL     1       2.089  30.253   6.902 +0.07 +0.04    +0.296 HD
DOCKED: ENDBRANCH   7   9
DOCKED: ENDBRANCH   6   7
DOCKED: ENDBRANCH   5   6
DOCKED: BRANCH   5  11
DOCKED: ATOM     11  C   UNL     1       4.488  27.680   6.248 -0.17 -0.03    +0.208 C 
DOCKED: BRANCH  11  12
DOCKED: ATOM     12  C   UNL     1       4.275  26.177   6.316 -0.16 +0.03    +0.317 C 
DOCKED: ATOM     13  O   UNL     1       3.313  25.638   6.841 -0.64 -0.06    -0.251 OA
DOCKED: BRANCH  12  14
DOCKED: ATOM     14  O   UNL     1       5.218  25.476   5.667 -0.13 +0.05    -0.480 OA
DOCKED: ATOM     15  H   UNL     1       5.012  24.509   5.638 -0.25 -0.04    +0.296 HD
DOCKED: ENDBRANCH  12  14
DOCKED: ENDBRANCH  11  12
DOCKED: ENDBRANCH   5  11
DOCKED: ENDBRANCH   4   5
DOCKED: ENDBRANCH   3   4
DOCKED: ENDBRANCH   2   3
DOCKED: ENDBRANCH   1   2
DOCKED: BRANCH   1  16
DOCKED: ATOM     16  C   UNL     1       8.532  26.476   8.545 -0.36 -0.05    +0.188 C 
DOCKED: BRANCH  16  17
DOCKED: ATOM     17  O   UNL     1       9.648  25.720   8.031 -0.14 +0.10    -0.378 OA
DOCKED: BRANCH  17  18
DOCKED: ATOM     18  C   UNL     1       9.648  25.742   6.587 -0.24 -0.06    +0.175 C 
DOCKED: BRANCH  18  19
DOCKED: ATOM     19  C   UNL     1      10.354  24.502   5.975 -0.27 -0.04    +0.114 C 
DOCKED: BRANCH  19  20
DOCKED: ATOM     20  N   UNL     1      11.581  24.068   6.698 -0.13 +0.10    -0.280 NA
DOCKED: BRANCH  20  21
DOCKED: ATOM     21  C   UNL     1      12.172  22.843   6.106 -0.26 -0.06    +0.208 C 
DOCKED: BRANCH  21  22
DOCKED: ATOM     22  C   UNL     1      12.324  21.658   7.055 -0.26 +0.05    +0.317 C 
DOCKED: ATOM     23  O   UNL     1      11.633  20.649   7.012 -1.23 -0.16    -0.251 OA
DOCKED: BRANCH  22  24
DOCKED: ATOM     24  O   UNL     1      13.272  21.841   8.009 -0.37 -0.02    -0.480 OA
DOCKED: ATOM     25  H   UNL     1      13.066  22.601   8.602 +0.20 -0.03    +0.296 HD
DOCKED: ENDBRANCH  22  24
DOCKED: ENDBRANCH  21  22
DOCKED: ENDBRANCH  20  21
DOCKED: BRANCH  20  26
DOCKED: ATOM     26  C   UNL     1      12.630  25.131   6.725 -0.27 -0.16    +0.208 C 
DOCKED: BRANCH  26  27
DOCKED: ATOM     27  C   UNL     1      13.002  25.478   8.164 -0.24 -0.23    +0.317 C 
DOCKED: ATOM     28  O   UNL     1      12.844  26.571   8.682 -0.33 +0.16    -0.251 OA
DOCKED: BRANCH  27  29
DOCKED: ATOM     29  O   UNL     1      13.580  24.429   8.808 -0.08 +0.25    -0.480 OA
DOCKED: ATOM     30  H   UNL     1      13.856  23.782   8.119 +0.19 -0.16    +0.296 HD
DOCKED: ENDBRANCH  27  29
DOCKED: ENDBRANCH  26  27
DOCKED: ENDBRANCH  20  26
DOCKED: ENDBRANCH  19  20
DOCKED: ENDBRANCH  18  19
DOCKED: ENDBRANCH  17  18
DOCKED: ENDBRANCH  16  17
DOCKED: ENDBRANCH   1  16
DOCKED: TORSDOF 21
DOCKED: TER
DOCKED: ENDMDL
________________________________________________________________________________


	BEGINNING GENETIC ALGORITHM DOCKING 3 of 10
Run: 3 Seed: 159716558 1805156393 [ Run 3 of 10 GA/GALS ]
Beginning LAMARCKIAN GENETIC ALGORITHM (LGA), with a maximum of 2500000 energy evaluations.

Final-Value: -12.218


	FINAL GENETIC ALGORITHM DOCKED STATE
	_______________________________________________


Detailed state:  trans 13.149 21.097 4.851 quatxyzw 0.432500 0.761551 0.364514 -0.316408 center 7.126 -3.211 4.392 ntor 21 -120.2641 -8.4542 -28.5398 -60.5335 -118.5793 -35.2207 -9.3094 49.3660 -59.5070 -159.7028 -39.4367 -156.5861 150.3749 2.7903 -158.8707 60.5317 -28.6489 -97.8691 -177.8885 179.6251 60.7934
State:	 13.149  21.097   4.851   0.456  0.803  0.384 -143.108   -120.26   -8.45  -28.54  -60.53 -118.58  -35.22   -9.31   49.37  -59.51 -159.70  -39.44 -156.59  150.37    2.79 -158.87   60.53  -28.65  -97.87 -177.89  179.63   60.79

DOCKED: MODEL        3
DOCKED: USER    Run = 3
DOCKED: USER    DPF = EGTA.dpf
DOCKED: USER  
DOCKED: USER    Estimated Free Energy of Binding    =   -1.86 kcal/mol  [=(1)+(2)+(3)-(4)]
DOCKED: USER    Estimated Inhibition Constant, Ki   =   43.12 mM (millimolar)  [Temperature = 298.15 K]
DOCKED: USER    
DOCKED: USER    (1) Final Intermolecular Energy     =   -8.13 kcal/mol
DOCKED: USER        vdW + Hbond + desolv Energy     =   -7.60 kcal/mol
DOCKED: USER        Electrostatic Energy            =   -0.53 kcal/mol
DOCKED: USER    (2) Final Total Internal Energy     =   -4.09 kcal/mol
DOCKED: USER    (3) Torsional Free Energy           =   +6.26 kcal/mol
DOCKED: USER    (4) Unbound System's Energy  [=(2)] =   -4.09 kcal/mol
DOCKED: USER    
DOCKED: USER    
DOCKED: USER    NEWDPF move EGTA.pdbqt
DOCKED: USER    NEWDPF about 7.125833 -3.211133 4.391800
DOCKED: USER    NEWDPF tran0 13.149118 21.096781 4.850574
DOCKED: USER    NEWDPF quaternion0 0.432500 0.761551 0.364514 -0.316408
DOCKED: USER    NEWDPF axisangle0 0.455924 0.802796 0.384256 -143.108370
DOCKED: USER    NEWDPF quat0 0.455924 0.802796 0.384256 -143.108370
DOCKED: USER    NEWDPF dihe0 -120.26 -8.45 -28.54 -60.53 -118.58 -35.22 -9.31 49.37 -59.51 -159.70 -39.44 -156.59 150.37 2.79 -158.87 60.53 -28.65 -97.87 -177.89 179.63 60.79 
DOCKED: USER  keepresnum = 1 
DOCKED: USER  
DOCKED: REMARK SMILES O=C(O)CN(CCOCCOCCN(CC(=O)O)CC(=O)O)CC(=O)O
DOCKED: REMARK SMILES IDX 9 1 8 2 7 3 6 4 5 5 4 6 2 7 1 8 3 9 23 11 24 12 25 13 26 14
DOCKED: REMARK SMILES IDX 10 16 11 17 12 18 13 19 14 20 15 21 16 22 17 23 18 24 19 26
DOCKED: REMARK SMILES IDX 20 27 21 28 22 29
DOCKED: REMARK H PARENT 3 10 26 15 18 25 22 30
DOCKED: USER                              x       y       z     vdW  Elec       q    Type
DOCKED: USER                           _______ _______ _______ _____ _____    ______ ____
DOCKED: ROOT
DOCKED: ATOM      1  C   UNL     1      11.580  22.984   7.125 -0.28 -0.02    +0.188 C 
DOCKED: ENDROOT
DOCKED: BRANCH   1   2
DOCKED: ATOM      2  O   UNL     1      12.258  21.714   7.092 -0.81 -0.05    -0.378 OA
DOCKED: BRANCH   2   3
DOCKED: ATOM      3  C   UNL     1      13.035  21.552   5.891 -0.31 -0.03    +0.175 C 
DOCKED: BRANCH   3   4
DOCKED: ATOM      4  C   UNL     1      14.234  20.597   6.125 -0.31 -0.01    +0.114 C 
DOCKED: BRANCH   4   5
DOCKED: ATOM      5  N   UNL     1      15.530  21.212   6.551 -0.12 +0.10    -0.280 NA
DOCKED: BRANCH   5   6
DOCKED: ATOM      6  C   UNL     1      15.597  22.588   5.937 -0.25 -0.17    +0.208 C 
DOCKED: BRANCH   6   7
DOCKED: ATOM      7  C   UNL     1      15.876  23.677   6.975 -0.19 -0.35    +0.317 C 
DOCKED: ATOM      8  O   UNL     1      16.986  24.033   7.330 -0.30 +0.28    -0.251 OA
DOCKED: BRANCH   7   9
DOCKED: ATOM      9  O   UNL     1      14.731  24.177   7.512 -0.09 +0.52    -0.480 OA
DOCKED: ATOM     10  H   UNL     1      14.719  25.146   7.356 -0.36 -0.62    +0.296 HD
DOCKED: ENDBRANCH   7   9
DOCKED: ENDBRANCH   6   7
DOCKED: ENDBRANCH   5   6
DOCKED: BRANCH   5  11
DOCKED: ATOM     11  C   UNL     1      15.685  21.298   8.034 -0.23 -0.05    +0.208 C 
DOCKED: BRANCH  11  12
DOCKED: ATOM     12  C   UNL     1      17.084  20.974   8.528 -0.15 -0.06    +0.317 C 
DOCKED: ATOM     13  O   UNL     1      17.335  20.196   9.435 -0.19 +0.01    -0.251 OA
DOCKED: BRANCH  12  14
DOCKED: ATOM     14  O   UNL     1      18.052  21.572   7.815 -0.06 +0.18    -0.480 OA
DOCKED: ATOM     15  H   UNL     1      17.690  22.098   7.060 -0.34 -0.23    +0.296 HD
DOCKED: ENDBRANCH  12  14
DOCKED: ENDBRANCH  11  12
DOCKED: ENDBRANCH   5  11
DOCKED: ENDBRANCH   4   5
DOCKED: ENDBRANCH   3   4
DOCKED: ENDBRANCH   2   3
DOCKED: ENDBRANCH   1   2
DOCKED: BRANCH   1  16
DOCKED: ATOM     16  C   UNL     1      12.043  23.843   5.941 -0.21 -0.09    +0.188 C 
DOCKED: BRANCH  16  17
DOCKED: ATOM     17  O   UNL     1      10.914  24.327   5.184 -0.08 +0.16    -0.378 OA
DOCKED: BRANCH  17  18
DOCKED: ATOM     18  C   UNL     1       9.677  23.950   5.828 -0.18 -0.04    +0.175 C 
DOCKED: BRANCH  18  19
DOCKED: ATOM     19  C   UNL     1       9.324  24.877   7.022 -0.24 -0.04    +0.114 C 
DOCKED: BRANCH  19  20
DOCKED: ATOM     20  N   UNL     1      10.434  25.761   7.470 -0.14 +0.09    -0.280 NA
DOCKED: BRANCH  20  21
DOCKED: ATOM     21  C   UNL     1      10.763  26.798   6.462 +0.02 -0.08    +0.208 C 
DOCKED: BRANCH  21  22
DOCKED: ATOM     22  C   UNL     1       9.690  27.057   5.408 -0.18 -0.13    +0.317 C 
DOCKED: ATOM     23  O   UNL     1       8.674  27.708   5.608 -0.80 +0.09    -0.251 OA
DOCKED: BRANCH  22  24
DOCKED: ATOM     24  O   UNL     1       9.933  26.447   4.220 -0.05 +0.27    -0.480 OA
DOCKED: ATOM     25  H   UNL     1      10.894  26.276   4.076 -0.21 -0.26    +0.296 HD
DOCKED: ENDBRANCH  22  24
DOCKED: ENDBRANCH  21  22
DOCKED: ENDBRANCH  20  21
DOCKED: BRANCH  20  26
DOCKED: ATOM     26  C   UNL     1      10.131  26.443   8.764 -0.32 -0.05    +0.208 C 
DOCKED: BRANCH  26  27
DOCKED: ATOM     27  C   UNL     1       9.339  27.725   8.520 -0.34 -0.09    +0.317 C 
DOCKED: ATOM     28  O   UNL     1       9.797  28.853   8.591 -0.94 +0.06    -0.251 OA
DOCKED: BRANCH  27  29
DOCKED: ATOM     29  O   UNL     1       8.030  27.472   8.250 -0.14 +0.17    -0.480 OA
DOCKED: ATOM     30  H   UNL     1       8.002  26.945   7.419 +0.18 -0.10    +0.296 HD
DOCKED: ENDBRANCH  27  29
DOCKED: ENDBRANCH  26  27
DOCKED: ENDBRANCH  20  26
DOCKED: ENDBRANCH  19  20
DOCKED: ENDBRANCH  18  19
DOCKED: ENDBRANCH  17  18
DOCKED: ENDBRANCH  16  17
DOCKED: ENDBRANCH   1  16
DOCKED: TORSDOF 21
DOCKED: TER
DOCKED: ENDMDL
________________________________________________________________________________


	BEGINNING GENETIC ALGORITHM DOCKING 4 of 10
Run: 4 Seed: 1951014215 1712986253 [ Run 4 of 10 GA/GALS ]
Beginning LAMARCKIAN GENETIC ALGORITHM (LGA), with a maximum of 2500000 energy evaluations.

Final-Value: -12.686


	FINAL GENETIC ALGORITHM DOCKED STATE
	_______________________________________________


Detailed state:  trans 14.488 23.450 4.713 quatxyzw 0.827009 0.193879 0.527677 -0.004930 center 7.126 -3.211 4.392 ntor 21 0.9250 176.0447 -145.3870 -41.2938 -66.3122 -2.4663 178.3072 5.6720 93.2403 139.4333 -24.0980 39.7743 -9.2360 -158.5760 -100.2899 -145.3959 98.7818 17.3691 -43.5348 -174.5186 23.0097
State:	 14.488  23.450   4.713   0.827  0.194  0.528 -179.435      0.92  176.04 -145.39  -41.29  -66.31   -2.47  178.31    5.67   93.24  139.43  -24.10   39.77   -9.24 -158.58 -100.29 -145.40   98.78   17.37  -43.53 -174.52   23.01

DOCKED: MODEL        4
DOCKED: USER    Run = 4
DOCKED: USER    DPF = EGTA.dpf
DOCKED: USER  
DOCKED: USER    Estimated Free Energy of Binding    =   +0.52 kcal/mol  [=(1)+(2)+(3)-(4)]
DOCKED: USER    
DOCKED: USER    (1) Final Intermolecular Energy     =   -5.75 kcal/mol
DOCKED: USER        vdW + Hbond + desolv Energy     =   -6.02 kcal/mol
DOCKED: USER        Electrostatic Energy            =   +0.28 kcal/mol
DOCKED: USER    (2) Final Total Internal Energy     =   -6.94 kcal/mol
DOCKED: USER    (3) Torsional Free Energy           =   +6.26 kcal/mol
DOCKED: USER    (4) Unbound System's Energy  [=(2)] =   -6.94 kcal/mol
DOCKED: USER    
DOCKED: USER    
DOCKED: USER    NEWDPF move EGTA.pdbqt
DOCKED: USER    NEWDPF about 7.125833 -3.211133 4.391800
DOCKED: USER    NEWDPF tran0 14.487911 23.450148 4.712724
DOCKED: USER    NEWDPF quaternion0 0.827009 0.193879 0.527677 -0.004930
DOCKED: USER    NEWDPF axisangle0 0.827019 0.193882 0.527683 -179.435066
DOCKED: USER    NEWDPF quat0 0.827019 0.193882 0.527683 -179.435066
DOCKED: USER    NEWDPF dihe0 0.92 176.04 -145.39 -41.29 -66.31 -2.47 178.31 5.67 93.24 139.43 -24.10 39.77 -9.24 -158.58 -100.29 -145.40 98.78 17.37 -43.53 -174.52 23.01 
DOCKED: USER  keepresnum = 1 
DOCKED: USER  
DOCKED: REMARK SMILES O=C(O)CN(CCOCCOCCN(CC(=O)O)CC(=O)O)CC(=O)O
DOCKED: REMARK SMILES IDX 9 1 8 2 7 3 6 4 5 5 4 6 2 7 1 8 3 9 23 11 24 12 25 13 26 14
DOCKED: REMARK SMILES IDX 10 16 11 17 12 18 13 19 14 20 15 21 16 22 17 23 18 24 19 26
DOCKED: REMARK SMILES IDX 20 27 21 28 22 29
DOCKED: REMARK H PARENT 3 10 26 15 18 25 22 30
DOCKED: USER                              x       y       z     vdW  Elec       q    Type
DOCKED: USER                           _______ _______ _______ _____ _____    ______ ____
DOCKED: ROOT
DOCKED: ATOM      1  C   UNL     1      14.117  21.961   7.685 -0.28 -0.03    +0.188 C 
DOCKED: ENDROOT
DOCKED: BRANCH   1   2
DOCKED: ATOM      2  O   UNL     1      13.712  21.719   6.326 -0.14 +0.09    -0.378 OA
DOCKED: BRANCH   2   3
DOCKED: ATOM      3  C   UNL     1      13.605  20.312   6.040 -0.20 +0.00    +0.175 C 
DOCKED: BRANCH   3   4
DOCKED: ATOM      4  C   UNL     1      14.998  19.689   5.765 -0.30 -0.02    +0.114 C 
DOCKED: BRANCH   4   5
DOCKED: ATOM      5  N   UNL     1      16.022  20.558   5.107 -0.15 +0.11    -0.280 NA
DOCKED: BRANCH   5   6
DOCKED: ATOM      6  C   UNL     1      17.344  19.838   5.189 -0.27 -0.07    +0.208 C 
DOCKED: BRANCH   6   7
DOCKED: ATOM      7  C   UNL     1      18.012  19.997   6.556 -0.19 -0.12    +0.317 C 
DOCKED: ATOM      8  O   UNL     1      18.605  19.114   7.149 -0.22 +0.06    -0.251 OA
DOCKED: BRANCH   7   9
DOCKED: ATOM      9  O   UNL     1      17.823  21.240   7.075 -0.01 +0.25    -0.480 OA
DOCKED: ATOM     10  H   UNL     1      17.310  21.768   6.425 -0.28 -0.24    +0.296 HD
DOCKED: ENDBRANCH   7   9
DOCKED: ENDBRANCH   6   7
DOCKED: ENDBRANCH   5   6
DOCKED: BRANCH   5  11
DOCKED: ATOM     11  C   UNL     1      15.697  20.882   3.685 -0.21 -0.10    +0.208 C 
DOCKED: BRANCH  11  12
DOCKED: ATOM     12  C   UNL     1      14.661  21.981   3.524 -0.23 -0.27    +0.317 C 
DOCKED: ATOM     13  O   UNL     1      13.472  21.788   3.322 -0.26 +0.15    -0.251 OA
DOCKED: BRANCH  12  14
DOCKED: ATOM     14  O   UNL     1      15.162  23.215   3.703 -0.13 +0.81    -0.480 OA
DOCKED: ATOM     15  H   UNL     1      14.468  23.915   3.628 -0.32 -0.67    +0.296 HD
DOCKED: ENDBRANCH  12  14
DOCKED: ENDBRANCH  11  12
DOCKED: ENDBRANCH   5  11
DOCKED: ENDBRANCH   4   5
DOCKED: ENDBRANCH   3   4
DOCKED: ENDBRANCH   2   3
DOCKED: ENDBRANCH   1   2
DOCKED: BRANCH   1  16
DOCKED: ATOM     16  C   UNL     1      15.337  22.892   7.700 -0.28 -0.11    +0.188 C 
DOCKED: BRANCH  16  17
DOCKED: ATOM     17  O   UNL     1      14.927  24.275   7.746 -0.17 +0.42    -0.378 OA
DOCKED: BRANCH  17  18
DOCKED: ATOM     18  C   UNL     1      13.511  24.372   8.014 -0.30 -0.11    +0.175 C 
DOCKED: BRANCH  18  19
DOCKED: ATOM     19  C   UNL     1      12.946  25.787   7.718 -0.35 -0.10    +0.114 C 
DOCKED: BRANCH  19  20
DOCKED: ATOM     20  N   UNL     1      11.596  25.798   7.092 -0.16 +0.14    -0.280 NA
DOCKED: BRANCH  20  21
DOCKED: ATOM     21  C   UNL     1      11.669  25.847   5.611 -0.24 -0.15    +0.208 C 
DOCKED: BRANCH  21  22
DOCKED: ATOM     22  C   UNL     1      12.854  25.116   4.984 -0.26 -0.36    +0.317 C 
DOCKED: ATOM     23  O   UNL     1      13.906  25.655   4.672 -0.44 +0.50    -0.251 OA
DOCKED: BRANCH  22  24
DOCKED: ATOM     24  O   UNL     1      12.618  23.801   4.744 -0.04 +0.37    -0.480 OA
DOCKED: ATOM     25  H   UNL     1      13.409  23.240   4.923 +0.19 -0.24    +0.296 HD
DOCKED: ENDBRANCH  22  24
DOCKED: ENDBRANCH  21  22
DOCKED: ENDBRANCH  20  21
DOCKED: BRANCH  20  26
DOCKED: ATOM     26  C   UNL     1      10.779  24.611   7.484 -0.26 -0.05    +0.208 C 
DOCKED: BRANCH  26  27
DOCKED: ATOM     27  C   UNL     1       9.620  25.032   8.383 -0.26 -0.06    +0.317 C 
DOCKED: ATOM     28  O   UNL     1       9.135  24.346   9.267 -0.41 +0.02    -0.251 OA
DOCKED: BRANCH  27  29
DOCKED: ATOM     29  O   UNL     1       9.146  26.265   8.059 -0.07 +0.13    -0.480 OA
DOCKED: ATOM     30  H   UNL     1       9.928  26.844   7.899 +0.21 -0.08    +0.296 HD
DOCKED: ENDBRANCH  27  29
DOCKED: ENDBRANCH  26  27
DOCKED: ENDBRANCH  20  26
DOCKED: ENDBRANCH  19  20
DOCKED: ENDBRANCH  18  19
DOCKED: ENDBRANCH  17  18
DOCKED: ENDBRANCH  16  17
DOCKED: ENDBRANCH   1  16
DOCKED: TORSDOF 21
DOCKED: TER
DOCKED: ENDMDL
________________________________________________________________________________


	BEGINNING GENETIC ALGORITHM DOCKING 5 of 10
Run: 5 Seed: 1129581644 1614532234 [ Run 5 of 10 GA/GALS ]
Beginning LAMARCKIAN GENETIC ALGORITHM (LGA), with a maximum of 2500000 energy evaluations.

Final-Value: -11.887


	FINAL GENETIC ALGORITHM DOCKED STATE
	_______________________________________________


Detailed state:  trans 13.046 18.229 4.325 quatxyzw 0.440990 0.356072 -0.383454 0.729180 center 7.126 -3.211 4.392 ntor 21 132.8849 -69.6073 -180.0000 -65.7016 -145.1467 -46.4531 -171.8865 49.4565 -131.2925 -178.4077 152.8468 60.5989 -149.2920 115.2679 159.5377 -29.4050 -164.2202 -110.6825 104.8920 -3.9186 175.1140
State:	 13.046  18.229   4.325   0.644  0.520 -0.560 86.365    132.88  -69.61 -180.00  -65.70 -145.15  -46.45 -171.89   49.46 -131.29 -178.41  152.85   60.60 -149.29  115.27  159.54  -29.40 -164.22 -110.68  104.89   -3.92  175.11

DOCKED: MODEL        5
DOCKED: USER    Run = 5
DOCKED: USER    DPF = EGTA.dpf
DOCKED: USER  
DOCKED: USER    Estimated Free Energy of Binding    =   -2.16 kcal/mol  [=(1)+(2)+(3)-(4)]
DOCKED: USER    Estimated Inhibition Constant, Ki   =   26.05 mM (millimolar)  [Temperature = 298.15 K]
DOCKED: USER    
DOCKED: USER    (1) Final Intermolecular Energy     =   -8.43 kcal/mol
DOCKED: USER        vdW + Hbond + desolv Energy     =   -7.99 kcal/mol
DOCKED: USER        Electrostatic Energy            =   -0.43 kcal/mol
DOCKED: USER    (2) Final Total Internal Energy     =   -3.46 kcal/mol
DOCKED: USER    (3) Torsional Free Energy           =   +6.26 kcal/mol
DOCKED: USER    (4) Unbound System's Energy  [=(2)] =   -3.46 kcal/mol
DOCKED: USER    
DOCKED: USER    
DOCKED: USER    NEWDPF move EGTA.pdbqt
DOCKED: USER    NEWDPF about 7.125833 -3.211133 4.391800
DOCKED: USER    NEWDPF tran0 13.046218 18.229269 4.325253
DOCKED: USER    NEWDPF quaternion0 0.440990 0.356072 -0.383454 0.729180
DOCKED: USER    NEWDPF axisangle0 0.644419 0.520328 -0.560342 86.364630
DOCKED: USER    NEWDPF quat0 0.644419 0.520328 -0.560342 86.364630
DOCKED: USER    NEWDPF dihe0 132.88 -69.61 -180.00 -65.70 -145.15 -46.45 -171.89 49.46 -131.29 -178.41 152.85 60.60 -149.29 115.27 159.54 -29.40 -164.22 -110.68 104.89 -3.92 175.11 
DOCKED: USER  keepresnum = 1 
DOCKED: USER  
DOCKED: REMARK SMILES O=C(O)CN(CCOCCOCCN(CC(=O)O)CC(=O)O)CC(=O)O
DOCKED: REMARK SMILES IDX 9 1 8 2 7 3 6 4 5 5 4 6 2 7 1 8 3 9 23 11 24 12 25 13 26 14
DOCKED: REMARK SMILES IDX 10 16 11 17 12 18 13 19 14 20 15 21 16 22 17 23 18 24 19 26
DOCKED: REMARK SMILES IDX 20 27 21 28 22 29
DOCKED: REMARK H PARENT 3 10 26 15 18 25 22 30
DOCKED: USER                              x       y       z     vdW  Elec       q    Type
DOCKED: USER                           _______ _______ _______ _____ _____    ______ ____
DOCKED: ROOT
DOCKED: ATOM      1  C   UNL     1      15.130  19.832   2.256 -0.36 -0.05    +0.188 C 
DOCKED: ENDROOT
DOCKED: BRANCH   1   2
DOCKED: ATOM      2  O   UNL     1      14.367  18.611   2.249 -0.21 +0.04    -0.378 OA
DOCKED: BRANCH   2   3
DOCKED: ATOM      3  C   UNL     1      14.792  17.708   3.287 -0.39 -0.01    +0.175 C 
DOCKED: BRANCH   3   4
DOCKED: ATOM      4  C   UNL     1      15.627  18.447   4.365 -0.39 -0.02    +0.114 C 
DOCKED: BRANCH   4   5
DOCKED: ATOM      5  N   UNL     1      16.909  17.809   4.799 -0.19 +0.06    -0.280 NA
DOCKED: BRANCH   5   6
DOCKED: ATOM      6  C   UNL     1      17.433  17.014   3.629 -0.34 -0.05    +0.208 C 
DOCKED: BRANCH   6   7
DOCKED: ATOM      7  C   UNL     1      17.585  17.864   2.367 -0.38 -0.08    +0.317 C 
DOCKED: ATOM      8  O   UNL     1      18.315  18.834   2.264 -1.00 +0.02    -0.251 OA
DOCKED: BRANCH   7   9
DOCKED: ATOM      9  O   UNL     1      16.763  17.447   1.367 -0.24 +0.10    -0.480 OA
DOCKED: ATOM     10  H   UNL     1      16.284  18.230   1.018 +0.25 -0.07    +0.296 HD
DOCKED: ENDBRANCH   7   9
DOCKED: ENDBRANCH   6   7
DOCKED: ENDBRANCH   5   6
DOCKED: BRANCH   5  11
DOCKED: ATOM     11  C   UNL     1      17.935  18.794   5.256 -0.29 -0.07    +0.208 C 
DOCKED: BRANCH  11  12
DOCKED: ATOM     12  C   UNL     1      18.400  18.581   6.686 -0.17 -0.10    +0.317 C 
DOCKED: ATOM     13  O   UNL     1      18.651  19.479   7.474 -0.21 +0.05    -0.251 OA
DOCKED: BRANCH  12  14
DOCKED: ATOM     14  O   UNL     1      18.441  17.287   7.045 -0.08 +0.11    -0.480 OA
DOCKED: ATOM     15  H   UNL     1      17.546  16.867   7.032 -0.42 -0.13    +0.296 HD
DOCKED: ENDBRANCH  12  14
DOCKED: ENDBRANCH  11  12
DOCKED: ENDBRANCH   5  11
DOCKED: ENDBRANCH   4   5
DOCKED: ENDBRANCH   3   4
DOCKED: ENDBRANCH   2   3
DOCKED: ENDBRANCH   1   2
DOCKED: BRANCH   1  16
DOCKED: ATOM     16  C   UNL     1      14.527  20.809   3.273 -0.31 -0.08    +0.188 C 
DOCKED: BRANCH  16  17
DOCKED: ATOM     17  O   UNL     1      14.071  22.014   2.622 -0.22 +0.35    -0.378 OA
DOCKED: BRANCH  17  18
DOCKED: ATOM     18  C   UNL     1      13.531  22.937   3.592 -0.22 -0.19    +0.175 C 
DOCKED: BRANCH  18  19
DOCKED: ATOM     19  C   UNL     1      14.615  23.480   4.562 -0.39 -0.15    +0.114 C 
DOCKED: BRANCH  19  20
DOCKED: ATOM     20  N   UNL     1      14.601  22.861   5.915 -0.13 +0.21    -0.280 NA
DOCKED: BRANCH  20  21
DOCKED: ATOM     21  C   UNL     1      15.646  23.432   6.800 -0.28 -0.21    +0.208 C 
DOCKED: BRANCH  21  22
DOCKED: ATOM     22  C   UNL     1      16.211  22.482   7.853 -0.18 -0.16    +0.317 C 
DOCKED: ATOM     23  O   UNL     1      15.705  22.294   8.951 -0.23 +0.07    -0.251 OA
DOCKED: BRANCH  22  24
DOCKED: ATOM     24  O   UNL     1      17.377  21.893   7.487 -0.03 +0.25    -0.480 OA
DOCKED: ATOM     25  H   UNL     1      17.697  21.245   8.158 +0.17 -0.08    +0.296 HD
DOCKED: ENDBRANCH  22  24
DOCKED: ENDBRANCH  21  22
DOCKED: ENDBRANCH  20  21
DOCKED: BRANCH  20  26
DOCKED: ATOM     26  C   UNL     1      13.279  23.008   6.594 -0.22 -0.09    +0.208 C 
DOCKED: BRANCH  26  27
DOCKED: ATOM     27  C   UNL     1      12.822  21.670   7.171 -0.22 +0.02    +0.317 C 
DOCKED: ATOM     28  O   UNL     1      11.953  20.962   6.690 -1.21 -0.08    -0.251 OA
DOCKED: BRANCH  27  29
DOCKED: ATOM     29  O   UNL     1      13.473  21.364   8.325 -0.26 -0.08    -0.480 OA
DOCKED: ATOM     30  H   UNL     1      14.415  21.197   8.092 +0.17 -0.01    +0.296 HD
DOCKED: ENDBRANCH  27  29
DOCKED: ENDBRANCH  26  27
DOCKED: ENDBRANCH  20  26
DOCKED: ENDBRANCH  19  20
DOCKED: ENDBRANCH  18  19
DOCKED: ENDBRANCH  17  18
DOCKED: ENDBRANCH  16  17
DOCKED: ENDBRANCH   1  16
DOCKED: TORSDOF 21
DOCKED: TER
DOCKED: ENDMDL
________________________________________________________________________________


	BEGINNING GENETIC ALGORITHM DOCKING 6 of 10
Run: 6 Seed: 687894798 1037897755 [ Run 6 of 10 GA/GALS ]
Beginning LAMARCKIAN GENETIC ALGORITHM (LGA), with a maximum of 2500000 energy evaluations.

Final-Value: -11.493


	FINAL GENETIC ALGORITHM DOCKED STATE
	_______________________________________________


Detailed state:  trans 12.461 21.885 8.143 quatxyzw -0.551149 -0.788609 0.266403 -0.057963 center 7.126 -3.211 4.392 ntor 21 -77.4137 44.4493 -64.3157 106.3444 94.2735 -166.7998 -166.9232 11.3951 -133.2293 -91.8517 -54.0544 -149.9783 -89.1892 91.6955 66.8927 179.9066 20.3877 167.0793 -27.6836 -73.7101 155.8767
State:	 12.461  21.885   8.143  -0.552 -0.790  0.267 -173.354    -77.41   44.45  -64.32  106.34   94.27 -166.80 -166.92   11.40 -133.23  -91.85  -54.05 -149.98  -89.19   91.70   66.89  179.91   20.39  167.08  -27.68  -73.71  155.88

DOCKED: MODEL        6
DOCKED: USER    Run = 6
DOCKED: USER    DPF = EGTA.dpf
DOCKED: USER  
DOCKED: USER    Estimated Free Energy of Binding    =   -0.98 kcal/mol  [=(1)+(2)+(3)-(4)]
DOCKED: USER    Estimated Inhibition Constant, Ki   =  191.82 mM (millimolar)  [Temperature = 298.15 K]
DOCKED: USER    
DOCKED: USER    (1) Final Intermolecular Energy     =   -7.24 kcal/mol
DOCKED: USER        vdW + Hbond + desolv Energy     =   -6.94 kcal/mol
DOCKED: USER        Electrostatic Energy            =   -0.30 kcal/mol
DOCKED: USER    (2) Final Total Internal Energy     =   -4.25 kcal/mol
DOCKED: USER    (3) Torsional Free Energy           =   +6.26 kcal/mol
DOCKED: USER    (4) Unbound System's Energy  [=(2)] =   -4.25 kcal/mol
DOCKED: USER    
DOCKED: USER    
DOCKED: USER    NEWDPF move EGTA.pdbqt
DOCKED: USER    NEWDPF about 7.125833 -3.211133 4.391800
DOCKED: USER    NEWDPF tran0 12.460537 21.884897 8.143156
DOCKED: USER    NEWDPF quaternion0 -0.551149 -0.788609 0.266403 -0.057963
DOCKED: USER    NEWDPF axisangle0 -0.552077 -0.789937 0.266852 -173.354220
DOCKED: USER    NEWDPF quat0 -0.552077 -0.789937 0.266852 -173.354220
DOCKED: USER    NEWDPF dihe0 -77.41 44.45 -64.32 106.34 94.27 -166.80 -166.92 11.40 -133.23 -91.85 -54.05 -149.98 -89.19 91.70 66.89 179.91 20.39 167.08 -27.68 -73.71 155.88 
DOCKED: USER  keepresnum = 1 
DOCKED: USER  
DOCKED: REMARK SMILES O=C(O)CN(CCOCCOCCN(CC(=O)O)CC(=O)O)CC(=O)O
DOCKED: REMARK SMILES IDX 9 1 8 2 7 3 6 4 5 5 4 6 2 7 1 8 3 9 23 11 24 12 25 13 26 14
DOCKED: REMARK SMILES IDX 10 16 11 17 12 18 13 19 14 20 15 21 16 22 17 23 18 24 19 26
DOCKED: REMARK SMILES IDX 20 27 21 28 22 29
DOCKED: REMARK H PARENT 3 10 26 15 18 25 22 30
DOCKED: USER                              x       y       z     vdW  Elec       q    Type
DOCKED: USER                           _______ _______ _______ _____ _____    ______ ____
DOCKED: ROOT
DOCKED: ATOM      1  C   UNL     1      14.034  24.819   8.475 -0.14 -0.16    +0.188 C 
DOCKED: ENDROOT
DOCKED: BRANCH   1   2
DOCKED: ATOM      2  O   UNL     1      14.339  23.428   8.684 -0.17 +0.16    -0.378 OA
DOCKED: BRANCH   2   3
DOCKED: ATOM      3  C   UNL     1      15.754  23.204   8.822 -0.31 -0.08    +0.175 C 
DOCKED: BRANCH   3   4
DOCKED: ATOM      4  C   UNL     1      16.122  21.732   8.503 -0.30 -0.03    +0.114 C 
DOCKED: BRANCH   4   5
DOCKED: ATOM      5  N   UNL     1      17.306  21.494   7.620 -0.11 +0.12    -0.280 NA
DOCKED: BRANCH   5   6
DOCKED: ATOM      6  C   UNL     1      18.520  21.403   8.511 -0.26 -0.03    +0.208 C 
DOCKED: BRANCH   6   7
DOCKED: ATOM      7  C   UNL     1      18.347  20.376   9.631 -0.16 +0.03    +0.317 C 
DOCKED: ATOM      8  O   UNL     1      17.472  20.410  10.478 -0.19 -0.01    -0.251 OA
DOCKED: BRANCH   7   9
DOCKED: ATOM      9  O   UNL     1      19.324  19.431   9.613 -0.00 -0.23    -0.480 OA
DOCKED: ATOM     10  H   UNL     1      19.099  18.771   8.922 +0.11 +0.10    +0.296 HD
DOCKED: ENDBRANCH   7   9
DOCKED: ENDBRANCH   6   7
DOCKED: ENDBRANCH   5   6
DOCKED: BRANCH   5  11
DOCKED: ATOM     11  C   UNL     1      17.184  20.262   6.786 -0.20 -0.07    +0.208 C 
DOCKED: BRANCH  11  12
DOCKED: ATOM     12  C   UNL     1      18.516  19.632   6.416 -0.22 -0.12    +0.317 C 
DOCKED: ATOM     13  O   UNL     1      19.026  18.693   7.006 -0.22 +0.07    -0.251 OA
DOCKED: BRANCH  12  14
DOCKED: ATOM     14  O   UNL     1      19.065  20.160   5.309 -0.70 +0.22    -0.480 OA
DOCKED: ATOM     15  H   UNL     1      19.101  21.148   5.344 -0.37 -0.24    +0.296 HD
DOCKED: ENDBRANCH  12  14
DOCKED: ENDBRANCH  11  12
DOCKED: ENDBRANCH   5  11
DOCKED: ENDBRANCH   4   5
DOCKED: ENDBRANCH   3   4
DOCKED: ENDBRANCH   2   3
DOCKED: ENDBRANCH   1   2
DOCKED: BRANCH   1  16
DOCKED: ATOM     16  C   UNL     1      12.862  24.946   7.492 -0.29 -0.13    +0.188 C 
DOCKED: BRANCH  16  17
DOCKED: ATOM     17  O   UNL     1      13.101  26.005   6.542 -0.20 +0.47    -0.378 OA
DOCKED: BRANCH  17  18
DOCKED: ATOM     18  C   UNL     1      13.311  25.459   5.221 -0.37 -0.25    +0.175 C 
DOCKED: BRANCH  18  19
DOCKED: ATOM     19  C   UNL     1      13.607  23.935   5.249 -0.33 -0.12    +0.114 C 
DOCKED: BRANCH  19  20
DOCKED: ATOM     20  N   UNL     1      12.484  23.077   4.783 -0.11 +0.16    -0.280 NA
DOCKED: BRANCH  20  21
DOCKED: ATOM     21  C   UNL     1      12.954  21.750   4.316 -0.21 -0.08    +0.208 C 
DOCKED: BRANCH  21  22
DOCKED: ATOM     22  C   UNL     1      14.449  21.485   4.476 -0.19 -0.16    +0.317 C 
DOCKED: ATOM     23  O   UNL     1      15.306  21.895   3.706 -0.30 +0.21    -0.251 OA
DOCKED: BRANCH  22  24
DOCKED: ATOM     24  O   UNL     1      14.752  20.693   5.536 -0.07 +0.13    -0.480 OA
DOCKED: ATOM     25  H   UNL     1      14.470  21.089   6.393 +0.17 -0.06    +0.296 HD
DOCKED: ENDBRANCH  22  24
DOCKED: ENDBRANCH  21  22
DOCKED: ENDBRANCH  20  21
DOCKED: BRANCH  20  26
DOCKED: ATOM     26  C   UNL     1      11.453  22.865   5.842 -0.27 -0.04    +0.208 C 
DOCKED: BRANCH  26  27
DOCKED: ATOM     27  C   UNL     1      11.920  21.807   6.838 -0.29 +0.04    +0.317 C 
DOCKED: ATOM     28  O   UNL     1      11.198  20.977   7.365 -1.15 -0.18    -0.251 OA
DOCKED: BRANCH  27  29
DOCKED: ATOM     29  O   UNL     1      13.247  21.917   7.114 -0.25 +0.04    -0.480 OA
DOCKED: ATOM     30  H   UNL     1      13.325  22.322   8.009 +0.17 -0.03    +0.296 HD
DOCKED: ENDBRANCH  27  29
DOCKED: ENDBRANCH  26  27
DOCKED: ENDBRANCH  20  26
DOCKED: ENDBRANCH  19  20
DOCKED: ENDBRANCH  18  19
DOCKED: ENDBRANCH  17  18
DOCKED: ENDBRANCH  16  17
DOCKED: ENDBRANCH   1  16
DOCKED: TORSDOF 21
DOCKED: TER
DOCKED: ENDMDL
________________________________________________________________________________


	BEGINNING GENETIC ALGORITHM DOCKING 7 of 10
Run: 7 Seed: 1488844332 1978491778 [ Run 7 of 10 GA/GALS ]
Beginning LAMARCKIAN GENETIC ALGORITHM (LGA), with a maximum of 2500000 energy evaluations.

Final-Value: -11.560


	FINAL GENETIC ALGORITHM DOCKED STATE
	_______________________________________________


Detailed state:  trans 15.019 21.545 8.798 quatxyzw 0.500517 0.070536 -0.838722 0.202615 center 7.126 -3.211 4.392 ntor 21 -65.4831 42.6079 -5.3943 -179.8369 -135.3417 -153.7644 -179.5832 17.3003 -138.9316 -163.7354 -157.2105 -155.3879 -22.8477 5.5304 -73.0147 -33.9018 -3.2068 177.5362 35.0684 19.4934 -92.9707
State:	 15.019  21.545   8.798   0.511  0.072 -0.856 156.620    -65.48   42.61   -5.39 -179.84 -135.34 -153.76 -179.58   17.30 -138.93 -163.74 -157.21 -155.39  -22.85    5.53  -73.01  -33.90   -3.21  177.54   35.07   19.49  -92.97

DOCKED: MODEL        7
DOCKED: USER    Run = 7
DOCKED: USER    DPF = EGTA.dpf
DOCKED: USER  
DOCKED: USER    Estimated Free Energy of Binding    =   -0.40 kcal/mol  [=(1)+(2)+(3)-(4)]
DOCKED: USER    Estimated Inhibition Constant, Ki   =  510.40 mM (millimolar)  [Temperature = 298.15 K]
DOCKED: USER    
DOCKED: USER    (1) Final Intermolecular Energy     =   -6.66 kcal/mol
DOCKED: USER        vdW + Hbond + desolv Energy     =   -6.21 kcal/mol
DOCKED: USER        Electrostatic Energy            =   -0.45 kcal/mol
DOCKED: USER    (2) Final Total Internal Energy     =   -4.90 kcal/mol
DOCKED: USER    (3) Torsional Free Energy           =   +6.26 kcal/mol
DOCKED: USER    (4) Unbound System's Energy  [=(2)] =   -4.90 kcal/mol
DOCKED: USER    
DOCKED: USER    
DOCKED: USER    NEWDPF move EGTA.pdbqt
DOCKED: USER    NEWDPF about 7.125833 -3.211133 4.391800
DOCKED: USER    NEWDPF tran0 15.018832 21.544529 8.798210
DOCKED: USER    NEWDPF quaternion0 0.500517 0.070536 -0.838722 0.202615
DOCKED: USER    NEWDPF axisangle0 0.511119 0.072030 -0.856487 156.620147
DOCKED: USER    NEWDPF quat0 0.511119 0.072030 -0.856487 156.620147
DOCKED: USER    NEWDPF dihe0 -65.48 42.61 -5.39 -179.84 -135.34 -153.76 -179.58 17.30 -138.93 -163.74 -157.21 -155.39 -22.85 5.53 -73.01 -33.90 -3.21 177.54 35.07 19.49 -92.97 
DOCKED: USER  keepresnum = 1 
DOCKED: USER  
DOCKED: REMARK SMILES O=C(O)CN(CCOCCOCCN(CC(=O)O)CC(=O)O)CC(=O)O
DOCKED: REMARK SMILES IDX 9 1 8 2 7 3 6 4 5 5 4 6 2 7 1 8 3 9 23 11 24 12 25 13 26 14
DOCKED: REMARK SMILES IDX 10 16 11 17 12 18 13 19 14 20 15 21 16 22 17 23 18 24 19 26
DOCKED: REMARK SMILES IDX 20 27 21 28 22 29
DOCKED: REMARK H PARENT 3 10 26 15 18 25 22 30
DOCKED: USER                              x       y       z     vdW  Elec       q    Type
DOCKED: USER                           _______ _______ _______ _____ _____    ______ ____
DOCKED: ROOT
DOCKED: ATOM      1  C   UNL     1      15.368  20.470   5.649 -0.25 -0.06    +0.188 C 
DOCKED: ENDROOT
DOCKED: BRANCH   1   2
DOCKED: ATOM      2  O   UNL     1      15.835  20.083   6.954 -0.13 +0.09    -0.378 OA
DOCKED: BRANCH   2   3
DOCKED: ATOM      3  C   UNL     1      17.253  19.831   6.963 -0.22 -0.05    +0.175 C 
DOCKED: BRANCH   3   4
DOCKED: ATOM      4  C   UNL     1      17.746  19.460   8.386 -0.24 -0.01    +0.114 C 
DOCKED: BRANCH   4   5
DOCKED: ATOM      5  N   UNL     1      16.753  19.542   9.501 -0.17 +0.02    -0.280 NA
DOCKED: BRANCH   5   6
DOCKED: ATOM      6  C   UNL     1      17.222  18.611  10.591 -0.25 +0.01    +0.208 C 
DOCKED: BRANCH   6   7
DOCKED: ATOM      7  C   UNL     1      18.707  18.788  10.911 -0.16 +0.10    +0.317 C 
DOCKED: ATOM      8  O   UNL     1      19.186  19.752  11.482 -0.26 -0.10    -0.251 OA
DOCKED: BRANCH   7   9
DOCKED: ATOM      9  O   UNL     1      19.459  17.761  10.434 -0.38 -0.29    -0.480 OA
DOCKED: ATOM     10  H   UNL     1      19.229  16.952  10.943 +0.09 +0.11    +0.296 HD
DOCKED: ENDBRANCH   7   9
DOCKED: ENDBRANCH   6   7
DOCKED: ENDBRANCH   5   6
DOCKED: BRANCH   5  11
DOCKED: ATOM     11  C   UNL     1      16.582  20.925  10.041 -0.24 -0.01    +0.208 C 
DOCKED: BRANCH  11  12
DOCKED: ATOM     12  C   UNL     1      15.134  21.321  10.276 -0.32 -0.02    +0.317 C 
DOCKED: ATOM     13  O   UNL     1      14.631  21.484  11.377 -0.46 +0.02    -0.251 OA
DOCKED: BRANCH  12  14
DOCKED: ATOM     14  O   UNL     1      14.456  21.557   9.141 -0.16 +0.03    -0.480 OA
DOCKED: ATOM     15  H   UNL     1      14.577  20.835   8.476 +0.17 +0.01    +0.296 HD
DOCKED: ENDBRANCH  12  14
DOCKED: ENDBRANCH  11  12
DOCKED: ENDBRANCH   5  11
DOCKED: ENDBRANCH   4   5
DOCKED: ENDBRANCH   3   4
DOCKED: ENDBRANCH   2   3
DOCKED: ENDBRANCH   1   2
DOCKED: BRANCH   1  16
DOCKED: ATOM     16  C   UNL     1      14.098  21.319   5.789 -0.25 -0.05    +0.188 C 
DOCKED: BRANCH  16  17
DOCKED: ATOM     17  O   UNL     1      13.396  20.999   7.008 -0.47 -0.04    -0.378 OA
DOCKED: BRANCH  17  18
DOCKED: ATOM     18  C   UNL     1      11.994  21.326   6.883 -0.29 +0.05    +0.175 C 
DOCKED: BRANCH  18  19
DOCKED: ATOM     19  C   UNL     1      11.668  22.037   5.542 -0.36 -0.01    +0.114 C 
DOCKED: BRANCH  19  20
DOCKED: ATOM     20  N   UNL     1      11.364  23.488   5.667 -0.13 +0.09    -0.280 NA
DOCKED: BRANCH  20  21
DOCKED: ATOM     21  C   UNL     1      12.571  24.284   5.998 -0.22 -0.14    +0.208 C 
DOCKED: BRANCH  21  22
DOCKED: ATOM     22  C   UNL     1      12.729  24.663   7.469 -0.20 -0.19    +0.317 C 
DOCKED: ATOM     23  O   UNL     1      12.331  25.713   7.954 -0.27 +0.14    -0.251 OA
DOCKED: BRANCH  22  24
DOCKED: ATOM     24  O   UNL     1      13.412  23.744   8.198 -0.09 +0.21    -0.480 OA
DOCKED: ATOM     25  H   UNL     1      13.671  22.958   7.664 +0.18 -0.11    +0.296 HD
DOCKED: ENDBRANCH  22  24
DOCKED: ENDBRANCH  21  22
DOCKED: ENDBRANCH  20  21
DOCKED: BRANCH  20  26
DOCKED: ATOM     26  C   UNL     1      10.756  24.051   4.424 -0.20 -0.09    +0.208 C 
DOCKED: BRANCH  26  27
DOCKED: ATOM     27  C   UNL     1      11.844  24.436   3.425 -0.20 -0.27    +0.317 C 
DOCKED: ATOM     28  O   UNL     1      11.857  25.465   2.769 -0.27 +0.27    -0.251 OA
DOCKED: BRANCH  27  29
DOCKED: ATOM     29  O   UNL     1      12.795  23.471   3.309 -0.09 +0.52    -0.480 OA
DOCKED: ATOM     30  H   UNL     1      13.440  23.780   2.631 -0.37 -0.67    +0.296 HD
DOCKED: ENDBRANCH  27  29
DOCKED: ENDBRANCH  26  27
DOCKED: ENDBRANCH  20  26
DOCKED: ENDBRANCH  19  20
DOCKED: ENDBRANCH  18  19
DOCKED: ENDBRANCH  17  18
DOCKED: ENDBRANCH  16  17
DOCKED: ENDBRANCH   1  16
DOCKED: TORSDOF 21
DOCKED: TER
DOCKED: ENDMDL
________________________________________________________________________________


	BEGINNING GENETIC ALGORITHM DOCKING 8 of 10
Run: 8 Seed: 1344302285 1594667230 [ Run 8 of 10 GA/GALS ]
Beginning LAMARCKIAN GENETIC ALGORITHM (LGA), with a maximum of 2500000 energy evaluations.

Final-Value: -11.727


	FINAL GENETIC ALGORITHM DOCKED STATE
	_______________________________________________


Detailed state:  trans 10.938 24.762 5.650 quatxyzw -0.552672 -0.699911 -0.397853 0.215386 center 7.126 -3.211 4.392 ntor 21 178.9779 14.4845 108.1579 90.8216 -179.3931 -145.0900 42.4460 -126.2835 -123.8995 -98.3849 2.9978 -106.6321 61.9846 93.6292 77.9521 -179.7102 16.7749 71.1642 -161.7614 158.3361 100.7789
State:	 10.938  24.762   5.650  -0.566 -0.717 -0.407 155.124    178.98   14.48  108.16   90.82 -179.39 -145.09   42.45 -126.28 -123.90  -98.38    3.00 -106.63   61.98   93.63   77.95 -179.71   16.77   71.16 -161.76  158.34  100.78

DOCKED: MODEL        8
DOCKED: USER    Run = 8
DOCKED: USER    DPF = EGTA.dpf
DOCKED: USER  
DOCKED: USER    Estimated Free Energy of Binding    =   -1.69 kcal/mol  [=(1)+(2)+(3)-(4)]
DOCKED: USER    Estimated Inhibition Constant, Ki   =   58.03 mM (millimolar)  [Temperature = 298.15 K]
DOCKED: USER    
DOCKED: USER    (1) Final Intermolecular Energy     =   -7.95 kcal/mol
DOCKED: USER        vdW + Hbond + desolv Energy     =   -7.49 kcal/mol
DOCKED: USER        Electrostatic Energy            =   -0.46 kcal/mol
DOCKED: USER    (2) Final Total Internal Energy     =   -3.78 kcal/mol
DOCKED: USER    (3) Torsional Free Energy           =   +6.26 kcal/mol
DOCKED: USER    (4) Unbound System's Energy  [=(2)] =   -3.78 kcal/mol
DOCKED: USER    
DOCKED: USER    
DOCKED: USER    NEWDPF move EGTA.pdbqt
DOCKED: USER    NEWDPF about 7.125833 -3.211133 4.391800
DOCKED: USER    NEWDPF tran0 10.937626 24.761808 5.649647
DOCKED: USER    NEWDPF quaternion0 -0.552672 -0.699911 -0.397853 0.215386
DOCKED: USER    NEWDPF axisangle0 -0.565956 -0.716733 -0.407415 155.123607
DOCKED: USER    NEWDPF quat0 -0.565956 -0.716733 -0.407415 155.123607
DOCKED: USER    NEWDPF dihe0 178.98 14.48 108.16 90.82 -179.39 -145.09 42.45 -126.28 -123.90 -98.38 3.00 -106.63 61.98 93.63 77.95 -179.71 16.77 71.16 -161.76 158.34 100.78 
DOCKED: USER  keepresnum = 1 
DOCKED: USER  
DOCKED: REMARK SMILES O=C(O)CN(CCOCCOCCN(CC(=O)O)CC(=O)O)CC(=O)O
DOCKED: REMARK SMILES IDX 9 1 8 2 7 3 6 4 5 5 4 6 2 7 1 8 3 9 23 11 24 12 25 13 26 14
DOCKED: REMARK SMILES IDX 10 16 11 17 12 18 13 19 14 20 15 21 16 22 17 23 18 24 19 26
DOCKED: REMARK SMILES IDX 20 27 21 28 22 29
DOCKED: REMARK H PARENT 3 10 26 15 18 25 22 30
DOCKED: USER                              x       y       z     vdW  Elec       q    Type
DOCKED: USER                           _______ _______ _______ _____ _____    ______ ____
DOCKED: ROOT
DOCKED: ATOM      1  C   UNL     1      10.061  26.142   8.569 -0.33 -0.05    +0.188 C 
DOCKED: ENDROOT
DOCKED: BRANCH   1   2
DOCKED: ATOM      2  O   UNL     1      10.511  24.857   8.101 -0.16 +0.08    -0.378 OA
DOCKED: BRANCH   2   3
DOCKED: ATOM      3  C   UNL     1      11.381  24.976   6.960 -0.26 -0.07    +0.175 C 
DOCKED: BRANCH   3   4
DOCKED: ATOM      4  C   UNL     1      11.492  23.630   6.197 -0.28 -0.03    +0.114 C 
DOCKED: BRANCH   4   5
DOCKED: ATOM      5  N   UNL     1      11.633  23.693   4.709 -0.11 +0.14    -0.280 NA
DOCKED: BRANCH   5   6
DOCKED: ATOM      6  C   UNL     1      10.451  22.968   4.114 -0.27 -0.05    +0.208 C 
DOCKED: BRANCH   6   7
DOCKED: ATOM      7  C   UNL     1       9.120  23.635   4.468 -0.17 -0.07    +0.317 C 
DOCKED: ATOM      8  O   UNL     1       8.979  24.818   4.720 -0.15 +0.08    -0.251 OA
DOCKED: BRANCH   7   9
DOCKED: ATOM      9  O   UNL     1       8.099  22.739   4.524 -0.06 +0.09    -0.480 OA
DOCKED: ATOM     10  H   UNL     1       7.289  23.217   4.808 -0.12 -0.11    +0.296 HD
DOCKED: ENDBRANCH   7   9
DOCKED: ENDBRANCH   6   7
DOCKED: ENDBRANCH   5   6
DOCKED: BRANCH   5  11
DOCKED: ATOM     11  C   UNL     1      11.704  25.088   4.180 -0.24 -0.17    +0.208 C 
DOCKED: BRANCH  11  12
DOCKED: ATOM     12  C   UNL     1      11.341  25.209   2.710 -0.11 -0.26    +0.317 C 
DOCKED: ATOM     13  O   UNL     1      10.413  25.877   2.279 -0.22 +0.14    -0.251 OA
DOCKED: BRANCH  12  14
DOCKED: ATOM     14  O   UNL     1      12.194  24.565   1.896 -0.08 +0.59    -0.480 OA
DOCKED: ATOM     15  H   UNL     1      12.709  23.867   2.371 -0.23 -0.44    +0.296 HD
DOCKED: ENDBRANCH  12  14
DOCKED: ENDBRANCH  11  12
DOCKED: ENDBRANCH   5  11
DOCKED: ENDBRANCH   4   5
DOCKED: ENDBRANCH   3   4
DOCKED: ENDBRANCH   2   3
DOCKED: ENDBRANCH   1   2
DOCKED: BRANCH   1  16
DOCKED: ATOM     16  C   UNL     1      10.471  27.226   7.564 -0.24 -0.06    +0.188 C 
DOCKED: BRANCH  16  17
DOCKED: ATOM     17  O   UNL     1       9.790  28.468   7.840 -0.89 +0.08    -0.378 OA
DOCKED: BRANCH  17  18
DOCKED: ATOM     18  C   UNL     1       8.659  28.239   8.709 -0.48 -0.07    +0.175 C 
DOCKED: BRANCH  18  19
DOCKED: ATOM     19  C   UNL     1       7.302  28.468   7.991 -0.38 -0.08    +0.114 C 
DOCKED: BRANCH  19  20
DOCKED: ATOM     20  N   UNL     1       6.550  27.223   7.674 -0.24 +0.09    -0.280 NA
DOCKED: BRANCH  20  21
DOCKED: ATOM     21  C   UNL     1       5.106  27.483   7.462 -0.27 -0.03    +0.208 C 
DOCKED: BRANCH  21  22
DOCKED: ATOM     22  C   UNL     1       4.768  28.432   6.314 -0.12 -0.10    +0.317 C 
DOCKED: ATOM     23  O   UNL     1       3.959  28.181   5.431 -0.08 +0.03    -0.251 OA
DOCKED: BRANCH  22  24
DOCKED: ATOM     24  O   UNL     1       5.494  29.578   6.323 -0.10 +0.41    -0.480 OA
DOCKED: ATOM     25  H   UNL     1       6.127  29.627   5.569 -0.38 -0.43    +0.296 HD
DOCKED: ENDBRANCH  22  24
DOCKED: ENDBRANCH  21  22
DOCKED: ENDBRANCH  20  21
DOCKED: BRANCH  20  26
DOCKED: ATOM     26  C   UNL     1       7.086  26.528   6.466 -0.15 -0.07    +0.208 C 
DOCKED: BRANCH  26  27
DOCKED: ATOM     27  C   UNL     1       7.567  27.544   5.434 -0.18 -0.14    +0.317 C 
DOCKED: ATOM     28  O   UNL     1       8.636  28.131   5.476 -0.89 +0.10    -0.251 OA
DOCKED: BRANCH  27  29
DOCKED: ATOM     29  O   UNL     1       6.640  27.763   4.463 -0.06 +0.19    -0.480 OA
DOCKED: ATOM     30  H   UNL     1       6.059  28.494   4.776 -0.25 -0.24    +0.296 HD
DOCKED: ENDBRANCH  27  29
DOCKED: ENDBRANCH  26  27
DOCKED: ENDBRANCH  20  26
DOCKED: ENDBRANCH  19  20
DOCKED: ENDBRANCH  18  19
DOCKED: ENDBRANCH  17  18
DOCKED: ENDBRANCH  16  17
DOCKED: ENDBRANCH   1  16
DOCKED: TORSDOF 21
DOCKED: TER
DOCKED: ENDMDL
________________________________________________________________________________


	BEGINNING GENETIC ALGORITHM DOCKING 9 of 10
Run: 9 Seed: 1284882094 484500311 [ Run 9 of 10 GA/GALS ]
Beginning LAMARCKIAN GENETIC ALGORITHM (LGA), with a maximum of 2500000 energy evaluations.

Final-Value: -13.027


	FINAL GENETIC ALGORITHM DOCKED STATE
	_______________________________________________


Detailed state:  trans 18.677 21.621 6.581 quatxyzw -0.283636 -0.657319 -0.694250 -0.074155 center 7.126 -3.211 4.392 ntor 21 -2.5431 100.9507 2.9520 44.1830 -43.6203 101.8980 124.0090 -105.2754 90.4349 -113.7786 -18.2207 153.0374 -46.9682 161.5833 -179.6817 156.2060 103.9879 -23.1311 136.4256 18.4830 21.5331
State:	 18.677  21.621   6.581  -0.284 -0.659 -0.696 -171.495     -2.54  100.95    2.95   44.18  -43.62  101.90  124.01 -105.28   90.43 -113.78  -18.22  153.04  -46.97  161.58 -179.68  156.21  103.99  -23.13  136.43   18.48   21.53

DOCKED: MODEL        9
DOCKED: USER    Run = 9
DOCKED: USER    DPF = EGTA.dpf
DOCKED: USER  
DOCKED: USER    Estimated Free Energy of Binding    =   -2.13 kcal/mol  [=(1)+(2)+(3)-(4)]
DOCKED: USER    Estimated Inhibition Constant, Ki   =   27.28 mM (millimolar)  [Temperature = 298.15 K]
DOCKED: USER    
DOCKED: USER    (1) Final Intermolecular Energy     =   -8.40 kcal/mol
DOCKED: USER        vdW + Hbond + desolv Energy     =   -7.97 kcal/mol
DOCKED: USER        Electrostatic Energy            =   -0.43 kcal/mol
DOCKED: USER    (2) Final Total Internal Energy     =   -4.63 kcal/mol
DOCKED: USER    (3) Torsional Free Energy           =   +6.26 kcal/mol
DOCKED: USER    (4) Unbound System's Energy  [=(2)] =   -4.63 kcal/mol
DOCKED: USER    
DOCKED: USER    
DOCKED: USER    NEWDPF move EGTA.pdbqt
DOCKED: USER    NEWDPF about 7.125833 -3.211133 4.391800
DOCKED: USER    NEWDPF tran0 18.677288 21.621236 6.580921
DOCKED: USER    NEWDPF quaternion0 -0.283636 -0.657319 -0.694250 -0.074155
DOCKED: USER    NEWDPF axisangle0 -0.284419 -0.659134 -0.696167 -171.494651
DOCKED: USER    NEWDPF quat0 -0.284419 -0.659134 -0.696167 -171.494651
DOCKED: USER    NEWDPF dihe0 -2.54 100.95 2.95 44.18 -43.62 101.90 124.01 -105.28 90.43 -113.78 -18.22 153.04 -46.97 161.58 -179.68 156.21 103.99 -23.13 136.43 18.48 21.53 
DOCKED: USER  keepresnum = 1 
DOCKED: USER  
DOCKED: REMARK SMILES O=C(O)CN(CCOCCOCCN(CC(=O)O)CC(=O)O)CC(=O)O
DOCKED: REMARK SMILES IDX 9 1 8 2 7 3 6 4 5 5 4 6 2 7 1 8 3 9 23 11 24 12 25 13 26 14
DOCKED: REMARK SMILES IDX 10 16 11 17 12 18 13 19 14 20 15 21 16 22 17 23 18 24 19 26
DOCKED: REMARK SMILES IDX 20 27 21 28 22 29
DOCKED: REMARK H PARENT 3 10 26 15 18 25 22 30
DOCKED: USER                              x       y       z     vdW  Elec       q    Type
DOCKED: USER                           _______ _______ _______ _____ _____    ______ ____
DOCKED: ROOT
DOCKED: ATOM      1  C   UNL     1      17.376  20.070   9.244 -0.23 -0.01    +0.188 C 
DOCKED: ENDROOT
DOCKED: BRANCH   1   2
DOCKED: ATOM      2  O   UNL     1      18.512  19.904   8.376 -0.12 +0.01    -0.378 OA
DOCKED: BRANCH   2   3
DOCKED: ATOM      3  C   UNL     1      18.238  20.364   7.040 -0.26 -0.06    +0.175 C 
DOCKED: BRANCH   3   4
DOCKED: ATOM      4  C   UNL     1      17.325  19.366   6.280 -0.27 -0.04    +0.114 C 
DOCKED: BRANCH   4   5
DOCKED: ATOM      5  N   UNL     1      17.928  18.621   5.132 -0.24 +0.09    -0.280 NA
DOCKED: BRANCH   5   6
DOCKED: ATOM      6  C   UNL     1      17.581  17.164   5.309 -0.28 -0.05    +0.208 C 
DOCKED: BRANCH   6   7
DOCKED: ATOM      7  C   UNL     1      18.541  16.447   6.260 -0.19 -0.05    +0.317 C 
DOCKED: ATOM      8  O   UNL     1      18.319  15.377   6.798 -0.80 -0.04    -0.251 OA
DOCKED: BRANCH   7   9
DOCKED: ATOM      9  O   UNL     1      19.669  17.171   6.489 -0.08 +0.18    -0.480 OA
DOCKED: ATOM     10  H   UNL     1      19.641  17.969   5.917 -0.15 -0.24    +0.296 HD
DOCKED: ENDBRANCH   7   9
DOCKED: ENDBRANCH   6   7
DOCKED: ENDBRANCH   5   6
DOCKED: BRANCH   5  11
DOCKED: ATOM     11  C   UNL     1      17.457  19.106   3.800 -0.32 -0.05    +0.208 C 
DOCKED: BRANCH  11  12
DOCKED: ATOM     12  C   UNL     1      17.950  18.272   2.630 -0.32 -0.08    +0.317 C 
DOCKED: ATOM     13  O   UNL     1      18.574  17.228   2.738 -0.54 +0.15    -0.251 OA
DOCKED: BRANCH  12  14
DOCKED: ATOM     14  O   UNL     1      17.566  18.752   1.435 -0.59 +0.14    -0.480 OA
DOCKED: ATOM     15  H   UNL     1      18.315  19.168   0.941 -0.23 -0.12    +0.296 HD
DOCKED: ENDBRANCH  12  14
DOCKED: ENDBRANCH  11  12
DOCKED: ENDBRANCH   5  11
DOCKED: ENDBRANCH   4   5
DOCKED: ENDBRANCH   3   4
DOCKED: ENDBRANCH   2   3
DOCKED: ENDBRANCH   1   2
DOCKED: BRANCH   1  16
DOCKED: ATOM     16  C   UNL     1      16.885  21.522   9.176 -0.24 -0.03    +0.188 C 
DOCKED: BRANCH  16  17
DOCKED: ATOM     17  O   UNL     1      15.932  21.694   8.107 -0.10 +0.11    -0.378 OA
DOCKED: BRANCH  17  18
DOCKED: ATOM     18  C   UNL     1      15.892  23.075   7.686 -0.30 -0.12    +0.175 C 
DOCKED: BRANCH  18  19
DOCKED: ATOM     19  C   UNL     1      15.428  23.233   6.213 -0.34 -0.11    +0.114 C 
DOCKED: BRANCH  19  20
DOCKED: ATOM     20  N   UNL     1      13.952  23.211   6.023 -0.11 +0.20    -0.280 NA
DOCKED: BRANCH  20  21
DOCKED: ATOM     21  C   UNL     1      13.546  22.316   4.912 -0.22 -0.12    +0.208 C 
DOCKED: BRANCH  21  22
DOCKED: ATOM     22  C   UNL     1      14.324  21.007   4.802 -0.18 -0.11    +0.317 C 
DOCKED: ATOM     23  O   UNL     1      14.537  20.420   3.750 -0.24 +0.08    -0.251 OA
DOCKED: BRANCH  22  24
DOCKED: ATOM     24  O   UNL     1      14.722  20.507   5.999 -0.08 +0.10    -0.480 OA
DOCKED: ATOM     25  H   UNL     1      14.359  21.019   6.759 +0.16 -0.04    +0.296 HD
DOCKED: ENDBRANCH  22  24
DOCKED: ENDBRANCH  21  22
DOCKED: ENDBRANCH  20  21
DOCKED: BRANCH  20  26
DOCKED: ATOM     26  C   UNL     1      13.226  22.788   7.257 -0.25 -0.06    +0.208 C 
DOCKED: BRANCH  26  27
DOCKED: ATOM     27  C   UNL     1      12.125  21.788   6.914 -0.28 +0.03    +0.317 C 
DOCKED: ATOM     28  O   UNL     1      12.210  20.579   7.054 -1.17 -0.13    -0.251 OA
DOCKED: BRANCH  27  29
DOCKED: ATOM     29  O   UNL     1      11.030  22.398   6.385 -0.16 -0.02    -0.480 OA
DOCKED: ATOM     30  H   UNL     1      11.355  23.078   5.751 +0.17 -0.07    +0.296 HD
DOCKED: ENDBRANCH  27  29
DOCKED: ENDBRANCH  26  27
DOCKED: ENDBRANCH  20  26
DOCKED: ENDBRANCH  19  20
DOCKED: ENDBRANCH  18  19
DOCKED: ENDBRANCH  17  18
DOCKED: ENDBRANCH  16  17
DOCKED: ENDBRANCH   1  16
DOCKED: TORSDOF 21
DOCKED: TER
DOCKED: ENDMDL
________________________________________________________________________________


	BEGINNING GENETIC ALGORITHM DOCKING 10 of 10
Run: 10 Seed: 1199945470 1627746509 [ Run 10 of 10 GA/GALS ]
Beginning LAMARCKIAN GENETIC ALGORITHM (LGA), with a maximum of 2500000 energy evaluations.

Final-Value: -14.563


	FINAL GENETIC ALGORITHM DOCKED STATE
	_______________________________________________


Detailed state:  trans 11.593 25.817 5.613 quatxyzw -0.882837 0.047724 -0.215477 0.414598 center 7.126 -3.211 4.392 ntor 21 31.0551 -37.3105 -23.1683 -24.4489 56.1438 -74.4700 92.6749 16.6581 -89.2198 -132.5701 -176.8401 61.5107 71.2358 -169.8661 135.0083 -7.2816 -71.1373 96.3151 -176.8107 24.6608 -158.0634
State:	 11.593  25.817   5.613  -0.970  0.052 -0.237 131.012     31.06  -37.31  -23.17  -24.45   56.14  -74.47   92.67   16.66  -89.22 -132.57 -176.84   61.51   71.24 -169.87  135.01   -7.28  -71.14   96.32 -176.81   24.66 -158.06

DOCKED: MODEL       10
DOCKED: USER    Run = 10
DOCKED: USER    DPF = EGTA.dpf
DOCKED: USER  
DOCKED: USER    Estimated Free Energy of Binding    =   +0.39 kcal/mol  [=(1)+(2)+(3)-(4)]
DOCKED: USER    
DOCKED: USER    (1) Final Intermolecular Energy     =   -5.87 kcal/mol
DOCKED: USER        vdW + Hbond + desolv Energy     =   -5.80 kcal/mol
DOCKED: USER        Electrostatic Energy            =   -0.07 kcal/mol
DOCKED: USER    (2) Final Total Internal Energy     =   -8.69 kcal/mol
DOCKED: USER    (3) Torsional Free Energy           =   +6.26 kcal/mol
DOCKED: USER    (4) Unbound System's Energy  [=(2)] =   -8.69 kcal/mol
DOCKED: USER    
DOCKED: USER    
DOCKED: USER    NEWDPF move EGTA.pdbqt
DOCKED: USER    NEWDPF about 7.125833 -3.211133 4.391800
DOCKED: USER    NEWDPF tran0 11.593146 25.817153 5.612663
DOCKED: USER    NEWDPF quaternion0 -0.882837 0.047724 -0.215477 0.414598
DOCKED: USER    NEWDPF axisangle0 -0.970145 0.052443 -0.236787 131.012055
DOCKED: USER    NEWDPF quat0 -0.970145 0.052443 -0.236787 131.012055
DOCKED: USER    NEWDPF dihe0 31.06 -37.31 -23.17 -24.45 56.14 -74.47 92.67 16.66 -89.22 -132.57 -176.84 61.51 71.24 -169.87 135.01 -7.28 -71.14 96.32 -176.81 24.66 -158.06 
DOCKED: USER  keepresnum = 1 
DOCKED: USER  
DOCKED: REMARK SMILES O=C(O)CN(CCOCCOCCN(CC(=O)O)CC(=O)O)CC(=O)O
DOCKED: REMARK SMILES IDX 9 1 8 2 7 3 6 4 5 5 4 6 2 7 1 8 3 9 23 11 24 12 25 13 26 14
DOCKED: REMARK SMILES IDX 10 16 11 17 12 18 13 19 14 20 15 21 16 22 17 23 18 24 19 26
DOCKED: REMARK SMILES IDX 20 27 21 28 22 29
DOCKED: REMARK H PARENT 3 10 26 15 18 25 22 30
DOCKED: USER                              x       y       z     vdW  Elec       q    Type
DOCKED: USER                           _______ _______ _______ _____ _____    ______ ____
DOCKED: ROOT
DOCKED: ATOM      1  C   UNL     1      12.212  26.225   8.875 -0.37 -0.08    +0.188 C 
DOCKED: ENDROOT
DOCKED: BRANCH   1   2
DOCKED: ATOM      2  O   UNL     1      11.056  26.067   8.031 -0.14 +0.13    -0.378 OA
DOCKED: BRANCH   2   3
DOCKED: ATOM      3  C   UNL     1      11.409  25.573   6.726 -0.26 -0.09    +0.175 C 
DOCKED: BRANCH   3   4
DOCKED: ATOM      4  C   UNL     1      10.915  24.116   6.526 -0.29 -0.03    +0.114 C 
DOCKED: BRANCH   4   5
DOCKED: ATOM      5  N   UNL     1      11.612  23.290   5.493 -0.12 +0.10    -0.280 NA
DOCKED: BRANCH   5   6
DOCKED: ATOM      6  C   UNL     1      10.644  23.083   4.354 -0.25 -0.06    +0.208 C 
DOCKED: BRANCH   6   7
DOCKED: ATOM      7  C   UNL     1      10.865  24.076   3.213 -0.17 -0.16    +0.317 C 
DOCKED: ATOM      8  O   UNL     1      10.233  25.105   3.052 -0.19 +0.12    -0.251 OA
DOCKED: BRANCH   7   9
DOCKED: ATOM      9  O   UNL     1      11.825  23.655   2.346 -0.11 +0.38    -0.480 OA
DOCKED: ATOM     10  H   UNL     1      11.836  22.673   2.357 +0.20 -0.16    +0.296 HD
DOCKED: ENDBRANCH   7   9
DOCKED: ENDBRANCH   6   7
DOCKED: ENDBRANCH   5   6
DOCKED: BRANCH   5  11
DOCKED: ATOM     11  C   UNL     1      12.875  23.911   4.991 -0.23 -0.17    +0.208 C 
DOCKED: BRANCH  11  12
DOCKED: ATOM     12  C   UNL     1      13.750  22.965   4.187 -0.19 -0.31    +0.317 C 
DOCKED: ATOM     13  O   UNL     1      14.894  23.210   3.836 -0.29 +0.40    -0.251 OA
DOCKED: BRANCH  12  14
DOCKED: ATOM     14  O   UNL     1      13.173  21.775   3.954 -0.08 +0.23    -0.480 OA
DOCKED: ATOM     15  H   UNL     1      12.562  21.506   4.683 +0.17 -0.07    +0.296 HD
DOCKED: ENDBRANCH  12  14
DOCKED: ENDBRANCH  11  12
DOCKED: ENDBRANCH   5  11
DOCKED: ENDBRANCH   4   5
DOCKED: ENDBRANCH   3   4
DOCKED: ENDBRANCH   2   3
DOCKED: ENDBRANCH   1   2
DOCKED: BRANCH   1  16
DOCKED: ATOM     16  C   UNL     1      13.451  25.670   8.159 -0.26 -0.18    +0.188 C 
DOCKED: BRANCH  16  17
DOCKED: ATOM     17  O   UNL     1      13.658  24.281   8.490 -0.18 +0.21    -0.378 OA
DOCKED: BRANCH  17  18
DOCKED: ATOM     18  C   UNL     1      15.064  23.956   8.437 -0.27 -0.13    +0.175 C 
DOCKED: BRANCH  18  19
DOCKED: ATOM     19  C   UNL     1      15.528  23.559   7.010 -0.34 -0.11    +0.114 C 
DOCKED: BRANCH  19  20
DOCKED: ATOM     20  N   UNL     1      15.228  22.152   6.629 -0.12 +0.15    -0.280 NA
DOCKED: BRANCH  20  21
DOCKED: ATOM     21  C   UNL     1      16.437  21.294   6.670 -0.19 -0.10    +0.208 C 
DOCKED: BRANCH  21  22
DOCKED: ATOM     22  C   UNL     1      16.832  20.646   5.345 -0.14 -0.15    +0.317 C 
DOCKED: ATOM     23  O   UNL     1      17.808  19.924   5.197 -0.42 +0.09    -0.251 OA
DOCKED: BRANCH  22  24
DOCKED: ATOM     24  O   UNL     1      16.026  20.989   4.308 -0.10 +0.23    -0.480 OA
DOCKED: ATOM     25  H   UNL     1      15.154  21.336   4.610 +0.18 -0.15    +0.296 HD
DOCKED: ENDBRANCH  22  24
DOCKED: ENDBRANCH  21  22
DOCKED: ENDBRANCH  20  21
DOCKED: BRANCH  20  26
DOCKED: ATOM     26  C   UNL     1      14.185  21.537   7.504 -0.25 -0.02    +0.208 C 
DOCKED: BRANCH  26  27
DOCKED: ATOM     27  C   UNL     1      13.130  20.827   6.660 -0.17 +0.04    +0.317 C 
DOCKED: ATOM     28  O   UNL     1      11.927  20.877   6.857 -1.26 -0.11    -0.251 OA
DOCKED: BRANCH  27  29
DOCKED: ATOM     29  O   UNL     1      13.688  20.082   5.668 -0.12 +0.02    -0.480 OA
DOCKED: ATOM     30  H   UNL     1      14.559  20.489   5.454 +0.17 -0.07    +0.296 HD
DOCKED: ENDBRANCH  27  29
DOCKED: ENDBRANCH  26  27
DOCKED: ENDBRANCH  20  26
DOCKED: ENDBRANCH  19  20
DOCKED: ENDBRANCH  18  19
DOCKED: ENDBRANCH  17  18
DOCKED: ENDBRANCH  16  17
DOCKED: ENDBRANCH   1  16
DOCKED: TORSDOF 21
DOCKED: TER
DOCKED: ENDMDL
________________________________________________________________________________

DPF> analysis


		CLUSTER ANALYSIS OF CONFORMATIONS
		_________________________________

Number of conformations = 10

RMSD cluster analysis will be performed using the ligand atoms only (30 / 30 total atoms).

Outputting structurally similar clusters, ranked in order of increasing energy.


________________________________________________________________________________

Number of distinct conformational clusters found = 8,  out of 10 runs,
Using an rmsd-tolerance of 2.0 A


	CLUSTERING HISTOGRAM
	____________________

________________________________________________________________________________
     |           |     |           |     |                                    
Clus | Lowest    | Run | Mean      | Num | Histogram                          
-ter | Binding   |     | Binding   | in  |                                    
Rank | Energy    |     | Energy    | Clus|    5    10   15   20   25   30   35
_____|___________|_____|___________|_____|____:____|____:____|____:____|____:___
   1 |     -3.21 |   1 |     -2.45 |   2 |##
   2 |     -2.16 |   5 |     -2.15 |   2 |##
   3 |     -1.86 |   3 |     -1.86 |   1 |#
   4 |     -1.63 |   2 |     -1.63 |   1 |#
   5 |     -0.98 |   6 |     -0.98 |   1 |#
   6 |     -0.40 |   7 |     -0.40 |   1 |#
   7 |     +0.39 |  10 |     +0.39 |   1 |#
   8 |     +0.52 |   4 |     +0.52 |   1 |#
_____|___________|_____|___________|_____|______________________________________


Number of multi-member conformational clusters found = 2, out of 10 runs.

	RMSD TABLE
	__________

_____________________________________________________________________
     |      |      |           |         |                 |
Rank | Sub- | Run  | Binding   | Cluster | Reference       | Grep
     | Rank |      | Energy    | RMSD    | RMSD            | Pattern
_____|______|______|___________|_________|_________________|___________
   1      1      1       -3.21      0.00     26.21           RANKING
   1      2      8       -1.69      2.00     26.51           RANKING
   2      1      5       -2.16      0.00     22.98           RANKING
   2      2      9       -2.13      1.78     23.11           RANKING
   3      1      3       -1.86      0.00     25.79           RANKING
   4      1      2       -1.63      0.00     26.68           RANKING
   5      1      6       -0.98      0.00     24.55           RANKING
   6      1      7       -0.40      0.00     24.21           RANKING
   7      1     10       +0.39      0.00     24.54           RANKING
   8      1      4       +0.52      0.00     24.94           RANKING
_______________________________________________________________________



	INFORMATION ENTROPY ANALYSIS FOR THIS CLUSTERING
	________________________________________________


Information entropy for this clustering = 0.88  (rmstol = 2.00 Angstrom)

_______________________________________________________________________


	STATISTICAL MECHANICAL ANALYSIS
	_______________________________


Partition function, Q =    10.02            at Temperature, T = 298.15 K
Free energy,        A ~ -1365.55 kcal/mol   at Temperature, T = 298.15 K
Internal energy,    U =    -1.32 kcal/mol   at Temperature, T = 298.15 K
Entropy,            S =     4.58 kcal/mol/K at Temperature, T = 298.15 K

_______________________________________________________________________


	LOWEST ENERGY DOCKED CONFORMATION from EACH CLUSTER
	___________________________________________________



Keeping original residue number (specified in the input PDBQ file) for outputting.

MODEL        1
USER    Run = 1
USER    Cluster Rank = 1
USER    Number of conformations in this cluster = 2
USER  
USER    RMSD from reference structure       = 26.208 A
USER  
USER    Estimated Free Energy of Binding    =   -3.21 kcal/mol  [=(1)+(2)+(3)-(4)]
USER    Estimated Inhibition Constant, Ki   =    4.43 mM (millimolar)  [Temperature = 298.15 K]
USER    
USER    (1) Final Intermolecular Energy     =   -9.48 kcal/mol
USER        vdW + Hbond + desolv Energy     =   -8.62 kcal/mol
USER        Electrostatic Energy            =   -0.86 kcal/mol
USER    (2) Final Total Internal Energy     =   -4.35 kcal/mol
USER    (3) Torsional Free Energy           =   +6.26 kcal/mol
USER    (4) Unbound System's Energy  [=(2)] =   -4.35 kcal/mol
USER    
USER    
USER  
USER    DPF = EGTA.dpf
USER    NEWDPF move	EGTA.pdbqt
USER    NEWDPF about	7.125833 -3.211133 4.391800
USER    NEWDPF tran0	10.004918 27.640369 8.248404
USER    NEWDPF axisangle0	-0.256438 -0.204064 -0.944774 -145.683957
USER    NEWDPF quaternion0	-0.245025 -0.194982 -0.902726 -0.295008
USER    NEWDPF dihe0	50.87 87.08 73.58 18.33 -159.67 121.98 -12.46 -72.84 64.06 -117.47 -168.43 129.05 160.36 -138.97 -115.98 86.77 -43.48 -42.05 -105.78 76.87 -9.24 
USER  
USER                              x       y       z    vdW   Elec        q     RMS 
ATOM      1  C   UNL     1       9.173  24.401   8.183 -0.18 -0.04    +0.188    26.208
ATOM      2  O   UNL     1      10.113  25.263   7.517 -0.14 +0.10    -0.378    26.208
ATOM      3  C   UNL     1      11.340  25.393   8.259 -0.31 -0.06    +0.175    26.208
ATOM      4  C   UNL     1      12.572  25.334   7.319 -0.35 -0.08    +0.114    26.208
ATOM      5  N   UNL     1      12.620  24.222   6.318 -0.12 +0.18    -0.280    26.208
ATOM      6  C   UNL     1      11.704  23.131   6.814 -0.28 -0.04    +0.208    26.208
ATOM      7  C   UNL     1      12.471  21.896   7.289 -0.18 +0.03    +0.317    26.208
ATOM      8  O   UNL     1      13.444  21.919   8.021 -0.46 +0.00    -0.251    26.208
ATOM      9  O   UNL     1      11.975  20.749   6.753 -1.03 -0.20    -0.480    26.208
ATOM     10  H   UNL     1      11.873  20.883   5.785 +0.16 +0.04    +0.296    26.208
ATOM     11  C   UNL     1      12.221  24.647   4.943 -0.25 -0.17    +0.208    26.208
ATOM     12  C   UNL     1      12.216  23.518   3.926 -0.18 -0.23    +0.317    26.208
ATOM     13  O   UNL     1      12.047  22.340   4.200 -0.22 +0.10    -0.251    26.208
ATOM     14  O   UNL     1      12.340  23.944   2.658 -0.11 +0.54    -0.480    26.208
ATOM     15  H   UNL     1      13.282  23.949   2.356 -0.32 -0.72    +0.296    26.208
ATOM     16  C   UNL     1       8.742  25.039   9.510 -0.43 -0.02    +0.188    26.208
ATOM     17  O   UNL     1       8.176  26.348   9.292 -0.24 +0.07    -0.378    26.208
ATOM     18  C   UNL     1       9.167  27.371   9.534 -0.41 -0.04    +0.175    26.208
ATOM     19  C   UNL     1       9.167  28.469   8.436 -0.51 -0.04    +0.114    26.208
ATOM     20  N   UNL     1       7.982  28.444   7.536 -0.34 +0.15    -0.280    26.208
ATOM     21  C   UNL     1       8.033  27.313   6.578 -0.28 -0.08    +0.208    26.208
ATOM     22  C   UNL     1       8.253  27.694   5.116 -0.21 -0.15    +0.317    26.208
ATOM     23  O   UNL     1       9.323  28.071   4.659 -0.80 +0.12    -0.251    26.208
ATOM     24  O   UNL     1       7.127  27.633   4.361 -0.10 +0.20    -0.480    26.208
ATOM     25  H   UNL     1       6.532  28.405   4.512 -0.15 -0.26    +0.296    26.208
ATOM     26  C   UNL     1       6.696  28.363   8.291 -0.19 -0.15    +0.208    26.208
ATOM     27  C   UNL     1       5.578  27.846   7.390 -0.21 -0.11    +0.317    26.208
ATOM     28  O   UNL     1       4.784  26.970   7.693 -0.76 -0.01    -0.251    26.208
ATOM     29  O   UNL     1       5.586  28.449   6.171 -0.07 +0.25    -0.480    26.208
ATOM     30  H   UNL     1       6.466  28.879   6.066 +0.04 -0.25    +0.296    26.208
TER
ENDMDL
MODEL        5
USER    Run = 5
USER    Cluster Rank = 2
USER    Number of conformations in this cluster = 2
USER  
USER    RMSD from reference structure       = 22.976 A
USER  
USER    Estimated Free Energy of Binding    =   -2.16 kcal/mol  [=(1)+(2)+(3)-(4)]
USER    Estimated Inhibition Constant, Ki   =   26.05 mM (millimolar)  [Temperature = 298.15 K]
USER    
USER    (1) Final Intermolecular Energy     =   -8.43 kcal/mol
USER        vdW + Hbond + desolv Energy     =   -7.99 kcal/mol
USER        Electrostatic Energy            =   -0.43 kcal/mol
USER    (2) Final Total Internal Energy     =   -3.46 kcal/mol
USER    (3) Torsional Free Energy           =   +6.26 kcal/mol
USER    (4) Unbound System's Energy  [=(2)] =   -3.46 kcal/mol
USER    
USER    
USER  
USER    DPF = EGTA.dpf
USER    NEWDPF move	EGTA.pdbqt
USER    NEWDPF about	7.125833 -3.211133 4.391800
USER    NEWDPF tran0	13.046218 18.229269 4.325253
USER    NEWDPF axisangle0	0.644419 0.520328 -0.560342 86.364630
USER    NEWDPF quaternion0	0.440990 0.356072 -0.383454 0.729180
USER    NEWDPF dihe0	132.88 -69.61 -180.00 -65.70 -145.15 -46.45 -171.89 49.46 -131.29 -178.41 152.85 60.60 -149.29 115.27 159.54 -29.40 -164.22 -110.68 104.89 -3.92 175.11 
USER  
USER                              x       y       z    vdW   Elec        q     RMS 
ATOM      1  C   UNL     1      15.130  19.832   2.256 -0.36 -0.05    +0.188    22.976
ATOM      2  O   UNL     1      14.367  18.611   2.249 -0.21 +0.04    -0.378    22.976
ATOM      3  C   UNL     1      14.792  17.708   3.287 -0.39 -0.01    +0.175    22.976
ATOM      4  C   UNL     1      15.627  18.447   4.365 -0.39 -0.02    +0.114    22.976
ATOM      5  N   UNL     1      16.909  17.809   4.799 -0.19 +0.06    -0.280    22.976
ATOM      6  C   UNL     1      17.433  17.014   3.629 -0.34 -0.05    +0.208    22.976
ATOM      7  C   UNL     1      17.585  17.864   2.367 -0.38 -0.08    +0.317    22.976
ATOM      8  O   UNL     1      18.315  18.834   2.264 -1.00 +0.02    -0.251    22.976
ATOM      9  O   UNL     1      16.763  17.447   1.367 -0.24 +0.10    -0.480    22.976
ATOM     10  H   UNL     1      16.284  18.230   1.018 +0.25 -0.07    +0.296    22.976
ATOM     11  C   UNL     1      17.935  18.794   5.256 -0.29 -0.07    +0.208    22.976
ATOM     12  C   UNL     1      18.400  18.581   6.686 -0.17 -0.10    +0.317    22.976
ATOM     13  O   UNL     1      18.651  19.479   7.474 -0.21 +0.05    -0.251    22.976
ATOM     14  O   UNL     1      18.441  17.287   7.045 -0.08 +0.11    -0.480    22.976
ATOM     15  H   UNL     1      17.546  16.867   7.032 -0.42 -0.13    +0.296    22.976
ATOM     16  C   UNL     1      14.527  20.809   3.273 -0.31 -0.08    +0.188    22.976
ATOM     17  O   UNL     1      14.071  22.014   2.622 -0.22 +0.35    -0.378    22.976
ATOM     18  C   UNL     1      13.531  22.937   3.592 -0.22 -0.19    +0.175    22.976
ATOM     19  C   UNL     1      14.615  23.480   4.562 -0.39 -0.15    +0.114    22.976
ATOM     20  N   UNL     1      14.601  22.861   5.915 -0.13 +0.21    -0.280    22.976
ATOM     21  C   UNL     1      15.646  23.432   6.800 -0.28 -0.21    +0.208    22.976
ATOM     22  C   UNL     1      16.211  22.482   7.853 -0.18 -0.16    +0.317    22.976
ATOM     23  O   UNL     1      15.705  22.294   8.951 -0.23 +0.07    -0.251    22.976
ATOM     24  O   UNL     1      17.377  21.893   7.487 -0.03 +0.25    -0.480    22.976
ATOM     25  H   UNL     1      17.697  21.245   8.158 +0.17 -0.08    +0.296    22.976
ATOM     26  C   UNL     1      13.279  23.008   6.594 -0.22 -0.09    +0.208    22.976
ATOM     27  C   UNL     1      12.822  21.670   7.171 -0.22 +0.02    +0.317    22.976
ATOM     28  O   UNL     1      11.953  20.962   6.690 -1.21 -0.08    -0.251    22.976
ATOM     29  O   UNL     1      13.473  21.364   8.325 -0.26 -0.08    -0.480    22.976
ATOM     30  H   UNL     1      14.415  21.197   8.092 +0.17 -0.01    +0.296    22.976
TER
ENDMDL
MODEL        3
USER    Run = 3
USER    Cluster Rank = 3
USER    Number of conformations in this cluster = 1
USER  
USER    RMSD from reference structure       = 25.786 A
USER  
USER    Estimated Free Energy of Binding    =   -1.86 kcal/mol  [=(1)+(2)+(3)-(4)]
USER    Estimated Inhibition Constant, Ki   =   43.12 mM (millimolar)  [Temperature = 298.15 K]
USER    
USER    (1) Final Intermolecular Energy     =   -8.13 kcal/mol
USER        vdW + Hbond + desolv Energy     =   -7.60 kcal/mol
USER        Electrostatic Energy            =   -0.53 kcal/mol
USER    (2) Final Total Internal Energy     =   -4.09 kcal/mol
USER    (3) Torsional Free Energy           =   +6.26 kcal/mol
USER    (4) Unbound System's Energy  [=(2)] =   -4.09 kcal/mol
USER    
USER    
USER  
USER    DPF = EGTA.dpf
USER    NEWDPF move	EGTA.pdbqt
USER    NEWDPF about	7.125833 -3.211133 4.391800
USER    NEWDPF tran0	13.149118 21.096781 4.850574
USER    NEWDPF axisangle0	0.455924 0.802796 0.384256 -143.108370
USER    NEWDPF quaternion0	0.432500 0.761551 0.364514 -0.316408
USER    NEWDPF dihe0	-120.26 -8.45 -28.54 -60.53 -118.58 -35.22 -9.31 49.37 -59.51 -159.70 -39.44 -156.59 150.37 2.79 -158.87 60.53 -28.65 -97.87 -177.89 179.63 60.79 
USER  
USER                              x       y       z    vdW   Elec        q     RMS 
ATOM      1  C   UNL     1      11.580  22.984   7.125 -0.28 -0.02    +0.188    25.786
ATOM      2  O   UNL     1      12.258  21.714   7.092 -0.81 -0.05    -0.378    25.786
ATOM      3  C   UNL     1      13.035  21.552   5.891 -0.31 -0.03    +0.175    25.786
ATOM      4  C   UNL     1      14.234  20.597   6.125 -0.31 -0.01    +0.114    25.786
ATOM      5  N   UNL     1      15.530  21.212   6.551 -0.12 +0.10    -0.280    25.786
ATOM      6  C   UNL     1      15.597  22.588   5.937 -0.25 -0.17    +0.208    25.786
ATOM      7  C   UNL     1      15.876  23.677   6.975 -0.19 -0.35    +0.317    25.786
ATOM      8  O   UNL     1      16.986  24.033   7.330 -0.30 +0.28    -0.251    25.786
ATOM      9  O   UNL     1      14.731  24.177   7.512 -0.09 +0.52    -0.480    25.786
ATOM     10  H   UNL     1      14.719  25.146   7.356 -0.36 -0.62    +0.296    25.786
ATOM     11  C   UNL     1      15.685  21.298   8.034 -0.23 -0.05    +0.208    25.786
ATOM     12  C   UNL     1      17.084  20.974   8.528 -0.15 -0.06    +0.317    25.786
ATOM     13  O   UNL     1      17.335  20.196   9.435 -0.19 +0.01    -0.251    25.786
ATOM     14  O   UNL     1      18.052  21.572   7.815 -0.06 +0.18    -0.480    25.786
ATOM     15  H   UNL     1      17.690  22.098   7.060 -0.34 -0.23    +0.296    25.786
ATOM     16  C   UNL     1      12.043  23.843   5.941 -0.21 -0.09    +0.188    25.786
ATOM     17  O   UNL     1      10.914  24.327   5.184 -0.08 +0.16    -0.378    25.786
ATOM     18  C   UNL     1       9.677  23.950   5.828 -0.18 -0.04    +0.175    25.786
ATOM     19  C   UNL     1       9.324  24.877   7.022 -0.24 -0.04    +0.114    25.786
ATOM     20  N   UNL     1      10.434  25.761   7.470 -0.14 +0.09    -0.280    25.786
ATOM     21  C   UNL     1      10.763  26.798   6.462 +0.02 -0.08    +0.208    25.786
ATOM     22  C   UNL     1       9.690  27.057   5.408 -0.18 -0.13    +0.317    25.786
ATOM     23  O   UNL     1       8.674  27.708   5.608 -0.80 +0.09    -0.251    25.786
ATOM     24  O   UNL     1       9.933  26.447   4.220 -0.05 +0.27    -0.480    25.786
ATOM     25  H   UNL     1      10.894  26.276   4.076 -0.21 -0.26    +0.296    25.786
ATOM     26  C   UNL     1      10.131  26.443   8.764 -0.32 -0.05    +0.208    25.786
ATOM     27  C   UNL     1       9.339  27.725   8.520 -0.34 -0.09    +0.317    25.786
ATOM     28  O   UNL     1       9.797  28.853   8.591 -0.94 +0.06    -0.251    25.786
ATOM     29  O   UNL     1       8.030  27.472   8.250 -0.14 +0.17    -0.480    25.786
ATOM     30  H   UNL     1       8.002  26.945   7.419 +0.18 -0.10    +0.296    25.786
TER
ENDMDL
MODEL        2
USER    Run = 2
USER    Cluster Rank = 4
USER    Number of conformations in this cluster = 1
USER  
USER    RMSD from reference structure       = 26.680 A
USER  
USER    Estimated Free Energy of Binding    =   -1.63 kcal/mol  [=(1)+(2)+(3)-(4)]
USER    Estimated Inhibition Constant, Ki   =   64.08 mM (millimolar)  [Temperature = 298.15 K]
USER    
USER    (1) Final Intermolecular Energy     =   -7.89 kcal/mol
USER        vdW + Hbond + desolv Energy     =   -7.42 kcal/mol
USER        Electrostatic Energy            =   -0.47 kcal/mol
USER    (2) Final Total Internal Energy     =   -3.34 kcal/mol
USER    (3) Torsional Free Energy           =   +6.26 kcal/mol
USER    (4) Unbound System's Energy  [=(2)] =   -3.34 kcal/mol
USER    
USER    
USER  
USER    DPF = EGTA.dpf
USER    NEWDPF move	EGTA.pdbqt
USER    NEWDPF about	7.125833 -3.211133 4.391800
USER    NEWDPF tran0	8.647021 27.714473 5.644947
USER    NEWDPF axisangle0	0.650162 -0.758419 -0.045720 -119.304493
USER    NEWDPF quaternion0	0.561073 -0.654497 -0.039455 -0.505247
USER    NEWDPF dihe0	-147.64 -180.00 58.61 17.98 82.48 -161.93 21.28 36.71 -105.65 179.48 -179.98 50.80 -55.86 111.81 -164.02 34.15 -66.56 28.84 -162.77 75.73 27.18 
USER  
USER                              x       y       z    vdW   Elec        q     RMS 
ATOM      1  C   UNL     1       8.972  27.883   8.970 -0.46 -0.06    +0.188    26.680
ATOM      2  O   UNL     1       8.768  28.802   7.882 -0.77 +0.15    -0.378    26.680
ATOM      3  C   UNL     1       8.049  28.192   6.793 -0.35 -0.08    +0.175    26.680
ATOM      4  C   UNL     1       6.663  28.859   6.595 -0.27 -0.09    +0.114    26.680
ATOM      5  N   UNL     1       5.484  28.196   7.235 -0.17 +0.12    -0.280    26.680
ATOM      6  C   UNL     1       4.838  29.210   8.146 -0.03 -0.14    +0.208    26.680
ATOM      7  C   UNL     1       3.934  30.183   7.389 -0.11 -0.12    +0.317    26.680
ATOM      8  O   UNL     1       4.327  31.059   6.639 -0.16 +0.14    -0.251    26.680
ATOM      9  O   UNL     1       2.620  30.000   7.689 -0.02 -0.06    -0.480    26.680
ATOM     10  H   UNL     1       2.089  30.253   6.902 +0.07 +0.04    +0.296    26.680
ATOM     11  C   UNL     1       4.488  27.680   6.248 -0.17 -0.03    +0.208    26.680
ATOM     12  C   UNL     1       4.275  26.177   6.316 -0.16 +0.03    +0.317    26.680
ATOM     13  O   UNL     1       3.313  25.638   6.841 -0.64 -0.06    -0.251    26.680
ATOM     14  O   UNL     1       5.218  25.476   5.667 -0.13 +0.05    -0.480    26.680
ATOM     15  H   UNL     1       5.012  24.509   5.638 -0.25 -0.04    +0.296    26.680
ATOM     16  C   UNL     1       8.532  26.476   8.545 -0.36 -0.05    +0.188    26.680
ATOM     17  O   UNL     1       9.648  25.720   8.031 -0.14 +0.10    -0.378    26.680
ATOM     18  C   UNL     1       9.648  25.742   6.587 -0.24 -0.06    +0.175    26.680
ATOM     19  C   UNL     1      10.354  24.502   5.975 -0.27 -0.04    +0.114    26.680
ATOM     20  N   UNL     1      11.581  24.068   6.698 -0.13 +0.10    -0.280    26.680
ATOM     21  C   UNL     1      12.172  22.843   6.106 -0.26 -0.06    +0.208    26.680
ATOM     22  C   UNL     1      12.324  21.658   7.055 -0.26 +0.05    +0.317    26.680
ATOM     23  O   UNL     1      11.633  20.649   7.012 -1.23 -0.16    -0.251    26.680
ATOM     24  O   UNL     1      13.272  21.841   8.009 -0.37 -0.02    -0.480    26.680
ATOM     25  H   UNL     1      13.066  22.601   8.602 +0.20 -0.03    +0.296    26.680
ATOM     26  C   UNL     1      12.630  25.131   6.725 -0.27 -0.16    +0.208    26.680
ATOM     27  C   UNL     1      13.002  25.478   8.164 -0.24 -0.23    +0.317    26.680
ATOM     28  O   UNL     1      12.844  26.571   8.682 -0.33 +0.16    -0.251    26.680
ATOM     29  O   UNL     1      13.580  24.429   8.808 -0.08 +0.25    -0.480    26.680
ATOM     30  H   UNL     1      13.856  23.782   8.119 +0.19 -0.16    +0.296    26.680
TER
ENDMDL
MODEL        6
USER    Run = 6
USER    Cluster Rank = 5
USER    Number of conformations in this cluster = 1
USER  
USER    RMSD from reference structure       = 24.547 A
USER  
USER    Estimated Free Energy of Binding    =   -0.98 kcal/mol  [=(1)+(2)+(3)-(4)]
USER    Estimated Inhibition Constant, Ki   =  191.82 mM (millimolar)  [Temperature = 298.15 K]
USER    
USER    (1) Final Intermolecular Energy     =   -7.24 kcal/mol
USER        vdW + Hbond + desolv Energy     =   -6.94 kcal/mol
USER        Electrostatic Energy            =   -0.30 kcal/mol
USER    (2) Final Total Internal Energy     =   -4.25 kcal/mol
USER    (3) Torsional Free Energy           =   +6.26 kcal/mol
USER    (4) Unbound System's Energy  [=(2)] =   -4.25 kcal/mol
USER    
USER    
USER  
USER    DPF = EGTA.dpf
USER    NEWDPF move	EGTA.pdbqt
USER    NEWDPF about	7.125833 -3.211133 4.391800
USER    NEWDPF tran0	12.460537 21.884897 8.143156
USER    NEWDPF axisangle0	-0.552077 -0.789937 0.266852 -173.354220
USER    NEWDPF quaternion0	-0.551149 -0.788609 0.266403 -0.057963
USER    NEWDPF dihe0	-77.41 44.45 -64.32 106.34 94.27 -166.80 -166.92 11.40 -133.23 -91.85 -54.05 -149.98 -89.19 91.70 66.89 179.91 20.39 167.08 -27.68 -73.71 155.88 
USER  
USER                              x       y       z    vdW   Elec        q     RMS 
ATOM      1  C   UNL     1      14.034  24.819   8.475 -0.14 -0.16    +0.188    24.547
ATOM      2  O   UNL     1      14.339  23.428   8.684 -0.17 +0.16    -0.378    24.547
ATOM      3  C   UNL     1      15.754  23.204   8.822 -0.31 -0.08    +0.175    24.547
ATOM      4  C   UNL     1      16.122  21.732   8.503 -0.30 -0.03    +0.114    24.547
ATOM      5  N   UNL     1      17.306  21.494   7.620 -0.11 +0.12    -0.280    24.547
ATOM      6  C   UNL     1      18.520  21.403   8.511 -0.26 -0.03    +0.208    24.547
ATOM      7  C   UNL     1      18.347  20.376   9.631 -0.16 +0.03    +0.317    24.547
ATOM      8  O   UNL     1      17.472  20.410  10.478 -0.19 -0.01    -0.251    24.547
ATOM      9  O   UNL     1      19.324  19.431   9.613 -0.00 -0.23    -0.480    24.547
ATOM     10  H   UNL     1      19.099  18.771   8.922 +0.11 +0.10    +0.296    24.547
ATOM     11  C   UNL     1      17.184  20.262   6.786 -0.20 -0.07    +0.208    24.547
ATOM     12  C   UNL     1      18.516  19.632   6.416 -0.22 -0.12    +0.317    24.547
ATOM     13  O   UNL     1      19.026  18.693   7.006 -0.22 +0.07    -0.251    24.547
ATOM     14  O   UNL     1      19.065  20.160   5.309 -0.70 +0.22    -0.480    24.547
ATOM     15  H   UNL     1      19.101  21.148   5.344 -0.37 -0.24    +0.296    24.547
ATOM     16  C   UNL     1      12.862  24.946   7.492 -0.29 -0.13    +0.188    24.547
ATOM     17  O   UNL     1      13.101  26.005   6.542 -0.20 +0.47    -0.378    24.547
ATOM     18  C   UNL     1      13.311  25.459   5.221 -0.37 -0.25    +0.175    24.547
ATOM     19  C   UNL     1      13.607  23.935   5.249 -0.33 -0.12    +0.114    24.547
ATOM     20  N   UNL     1      12.484  23.077   4.783 -0.11 +0.16    -0.280    24.547
ATOM     21  C   UNL     1      12.954  21.750   4.316 -0.21 -0.08    +0.208    24.547
ATOM     22  C   UNL     1      14.449  21.485   4.476 -0.19 -0.16    +0.317    24.547
ATOM     23  O   UNL     1      15.306  21.895   3.706 -0.30 +0.21    -0.251    24.547
ATOM     24  O   UNL     1      14.752  20.693   5.536 -0.07 +0.13    -0.480    24.547
ATOM     25  H   UNL     1      14.470  21.089   6.393 +0.17 -0.06    +0.296    24.547
ATOM     26  C   UNL     1      11.453  22.865   5.842 -0.27 -0.04    +0.208    24.547
ATOM     27  C   UNL     1      11.920  21.807   6.838 -0.29 +0.04    +0.317    24.547
ATOM     28  O   UNL     1      11.198  20.977   7.365 -1.15 -0.18    -0.251    24.547
ATOM     29  O   UNL     1      13.247  21.917   7.114 -0.25 +0.04    -0.480    24.547
ATOM     30  H   UNL     1      13.325  22.322   8.009 +0.17 -0.03    +0.296    24.547
TER
ENDMDL
MODEL        7
USER    Run = 7
USER    Cluster Rank = 6
USER    Number of conformations in this cluster = 1
USER  
USER    RMSD from reference structure       = 24.207 A
USER  
USER    Estimated Free Energy of Binding    =   -0.40 kcal/mol  [=(1)+(2)+(3)-(4)]
USER    Estimated Inhibition Constant, Ki   =  510.40 mM (millimolar)  [Temperature = 298.15 K]
USER    
USER    (1) Final Intermolecular Energy     =   -6.66 kcal/mol
USER        vdW + Hbond + desolv Energy     =   -6.21 kcal/mol
USER        Electrostatic Energy            =   -0.45 kcal/mol
USER    (2) Final Total Internal Energy     =   -4.90 kcal/mol
USER    (3) Torsional Free Energy           =   +6.26 kcal/mol
USER    (4) Unbound System's Energy  [=(2)] =   -4.90 kcal/mol
USER    
USER    
USER  
USER    DPF = EGTA.dpf
USER    NEWDPF move	EGTA.pdbqt
USER    NEWDPF about	7.125833 -3.211133 4.391800
USER    NEWDPF tran0	15.018832 21.544529 8.798210
USER    NEWDPF axisangle0	0.511119 0.072030 -0.856487 156.620147
USER    NEWDPF quaternion0	0.500517 0.070536 -0.838722 0.202615
USER    NEWDPF dihe0	-65.48 42.61 -5.39 -179.84 -135.34 -153.76 -179.58 17.30 -138.93 -163.74 -157.21 -155.39 -22.85 5.53 -73.01 -33.90 -3.21 177.54 35.07 19.49 -92.97 
USER  
USER                              x       y       z    vdW   Elec        q     RMS 
ATOM      1  C   UNL     1      15.368  20.470   5.649 -0.25 -0.06    +0.188    24.207
ATOM      2  O   UNL     1      15.835  20.083   6.954 -0.13 +0.09    -0.378    24.207
ATOM      3  C   UNL     1      17.253  19.831   6.963 -0.22 -0.05    +0.175    24.207
ATOM      4  C   UNL     1      17.746  19.460   8.386 -0.24 -0.01    +0.114    24.207
ATOM      5  N   UNL     1      16.753  19.542   9.501 -0.17 +0.02    -0.280    24.207
ATOM      6  C   UNL     1      17.222  18.611  10.591 -0.25 +0.01    +0.208    24.207
ATOM      7  C   UNL     1      18.707  18.788  10.911 -0.16 +0.10    +0.317    24.207
ATOM      8  O   UNL     1      19.186  19.752  11.482 -0.26 -0.10    -0.251    24.207
ATOM      9  O   UNL     1      19.459  17.761  10.434 -0.38 -0.29    -0.480    24.207
ATOM     10  H   UNL     1      19.229  16.952  10.943 +0.09 +0.11    +0.296    24.207
ATOM     11  C   UNL     1      16.582  20.925  10.041 -0.24 -0.01    +0.208    24.207
ATOM     12  C   UNL     1      15.134  21.321  10.276 -0.32 -0.02    +0.317    24.207
ATOM     13  O   UNL     1      14.631  21.484  11.377 -0.46 +0.02    -0.251    24.207
ATOM     14  O   UNL     1      14.456  21.557   9.141 -0.16 +0.03    -0.480    24.207
ATOM     15  H   UNL     1      14.577  20.835   8.476 +0.17 +0.01    +0.296    24.207
ATOM     16  C   UNL     1      14.098  21.319   5.789 -0.25 -0.05    +0.188    24.207
ATOM     17  O   UNL     1      13.396  20.999   7.008 -0.47 -0.04    -0.378    24.207
ATOM     18  C   UNL     1      11.994  21.326   6.883 -0.29 +0.05    +0.175    24.207
ATOM     19  C   UNL     1      11.668  22.037   5.542 -0.36 -0.01    +0.114    24.207
ATOM     20  N   UNL     1      11.364  23.488   5.667 -0.13 +0.09    -0.280    24.207
ATOM     21  C   UNL     1      12.571  24.284   5.998 -0.22 -0.14    +0.208    24.207
ATOM     22  C   UNL     1      12.729  24.663   7.469 -0.20 -0.19    +0.317    24.207
ATOM     23  O   UNL     1      12.331  25.713   7.954 -0.27 +0.14    -0.251    24.207
ATOM     24  O   UNL     1      13.412  23.744   8.198 -0.09 +0.21    -0.480    24.207
ATOM     25  H   UNL     1      13.671  22.958   7.664 +0.18 -0.11    +0.296    24.207
ATOM     26  C   UNL     1      10.756  24.051   4.424 -0.20 -0.09    +0.208    24.207
ATOM     27  C   UNL     1      11.844  24.436   3.425 -0.20 -0.27    +0.317    24.207
ATOM     28  O   UNL     1      11.857  25.465   2.769 -0.27 +0.27    -0.251    24.207
ATOM     29  O   UNL     1      12.795  23.471   3.309 -0.09 +0.52    -0.480    24.207
ATOM     30  H   UNL     1      13.440  23.780   2.631 -0.37 -0.67    +0.296    24.207
TER
ENDMDL
MODEL       10
USER    Run = 10
USER    Cluster Rank = 7
USER    Number of conformations in this cluster = 1
USER  
USER    RMSD from reference structure       = 24.536 A
USER  
USER    Estimated Free Energy of Binding    =   +0.39 kcal/mol  [=(1)+(2)+(3)-(4)]
USER    
USER    (1) Final Intermolecular Energy     =   -5.87 kcal/mol
USER        vdW + Hbond + desolv Energy     =   -5.80 kcal/mol
USER        Electrostatic Energy            =   -0.07 kcal/mol
USER    (2) Final Total Internal Energy     =   -8.69 kcal/mol
USER    (3) Torsional Free Energy           =   +6.26 kcal/mol
USER    (4) Unbound System's Energy  [=(2)] =   -8.69 kcal/mol
USER    
USER    
USER  
USER    DPF = EGTA.dpf
USER    NEWDPF move	EGTA.pdbqt
USER    NEWDPF about	7.125833 -3.211133 4.391800
USER    NEWDPF tran0	11.593146 25.817153 5.612663
USER    NEWDPF axisangle0	-0.970145 0.052443 -0.236787 131.012055
USER    NEWDPF quaternion0	-0.882837 0.047724 -0.215477 0.414598
USER    NEWDPF dihe0	31.06 -37.31 -23.17 -24.45 56.14 -74.47 92.67 16.66 -89.22 -132.57 -176.84 61.51 71.24 -169.87 135.01 -7.28 -71.14 96.32 -176.81 24.66 -158.06 
USER  
USER                              x       y       z    vdW   Elec        q     RMS 
ATOM      1  C   UNL     1      12.212  26.225   8.875 -0.37 -0.08    +0.188    24.536
ATOM      2  O   UNL     1      11.056  26.067   8.031 -0.14 +0.13    -0.378    24.536
ATOM      3  C   UNL     1      11.409  25.573   6.726 -0.26 -0.09    +0.175    24.536
ATOM      4  C   UNL     1      10.915  24.116   6.526 -0.29 -0.03    +0.114    24.536
ATOM      5  N   UNL     1      11.612  23.290   5.493 -0.12 +0.10    -0.280    24.536
ATOM      6  C   UNL     1      10.644  23.083   4.354 -0.25 -0.06    +0.208    24.536
ATOM      7  C   UNL     1      10.865  24.076   3.213 -0.17 -0.16    +0.317    24.536
ATOM      8  O   UNL     1      10.233  25.105   3.052 -0.19 +0.12    -0.251    24.536
ATOM      9  O   UNL     1      11.825  23.655   2.346 -0.11 +0.38    -0.480    24.536
ATOM     10  H   UNL     1      11.836  22.673   2.357 +0.20 -0.16    +0.296    24.536
ATOM     11  C   UNL     1      12.875  23.911   4.991 -0.23 -0.17    +0.208    24.536
ATOM     12  C   UNL     1      13.750  22.965   4.187 -0.19 -0.31    +0.317    24.536
ATOM     13  O   UNL     1      14.894  23.210   3.836 -0.29 +0.40    -0.251    24.536
ATOM     14  O   UNL     1      13.173  21.775   3.954 -0.08 +0.23    -0.480    24.536
ATOM     15  H   UNL     1      12.562  21.506   4.683 +0.17 -0.07    +0.296    24.536
ATOM     16  C   UNL     1      13.451  25.670   8.159 -0.26 -0.18    +0.188    24.536
ATOM     17  O   UNL     1      13.658  24.281   8.490 -0.18 +0.21    -0.378    24.536
ATOM     18  C   UNL     1      15.064  23.956   8.437 -0.27 -0.13    +0.175    24.536
ATOM     19  C   UNL     1      15.528  23.559   7.010 -0.34 -0.11    +0.114    24.536
ATOM     20  N   UNL     1      15.228  22.152   6.629 -0.12 +0.15    -0.280    24.536
ATOM     21  C   UNL     1      16.437  21.294   6.670 -0.19 -0.10    +0.208    24.536
ATOM     22  C   UNL     1      16.832  20.646   5.345 -0.14 -0.15    +0.317    24.536
ATOM     23  O   UNL     1      17.808  19.924   5.197 -0.42 +0.09    -0.251    24.536
ATOM     24  O   UNL     1      16.026  20.989   4.308 -0.10 +0.23    -0.480    24.536
ATOM     25  H   UNL     1      15.154  21.336   4.610 +0.18 -0.15    +0.296    24.536
ATOM     26  C   UNL     1      14.185  21.537   7.504 -0.25 -0.02    +0.208    24.536
ATOM     27  C   UNL     1      13.130  20.827   6.660 -0.17 +0.04    +0.317    24.536
ATOM     28  O   UNL     1      11.927  20.877   6.857 -1.26 -0.11    -0.251    24.536
ATOM     29  O   UNL     1      13.688  20.082   5.668 -0.12 +0.02    -0.480    24.536
ATOM     30  H   UNL     1      14.559  20.489   5.454 +0.17 -0.07    +0.296    24.536
TER
ENDMDL
MODEL        4
USER    Run = 4
USER    Cluster Rank = 8
USER    Number of conformations in this cluster = 1
USER  
USER    RMSD from reference structure       = 24.939 A
USER  
USER    Estimated Free Energy of Binding    =   +0.52 kcal/mol  [=(1)+(2)+(3)-(4)]
USER    
USER    (1) Final Intermolecular Energy     =   -5.75 kcal/mol
USER        vdW + Hbond + desolv Energy     =   -6.02 kcal/mol
USER        Electrostatic Energy            =   +0.28 kcal/mol
USER    (2) Final Total Internal Energy     =   -6.94 kcal/mol
USER    (3) Torsional Free Energy           =   +6.26 kcal/mol
USER    (4) Unbound System's Energy  [=(2)] =   -6.94 kcal/mol
USER    
USER    
USER  
USER    DPF = EGTA.dpf
USER    NEWDPF move	EGTA.pdbqt
USER    NEWDPF about	7.125833 -3.211133 4.391800
USER    NEWDPF tran0	14.487911 23.450148 4.712724
USER    NEWDPF axisangle0	0.827019 0.193882 0.527683 -179.435066
USER    NEWDPF quaternion0	0.827009 0.193879 0.527677 -0.004930
USER    NEWDPF dihe0	0.92 176.04 -145.39 -41.29 -66.31 -2.47 178.31 5.67 93.24 139.43 -24.10 39.77 -9.24 -158.58 -100.29 -145.40 98.78 17.37 -43.53 -174.52 23.01 
USER  
USER                              x       y       z    vdW   Elec        q     RMS 
ATOM      1  C   UNL     1      14.117  21.961   7.685 -0.28 -0.03    +0.188    24.939
ATOM      2  O   UNL     1      13.712  21.719   6.326 -0.14 +0.09    -0.378    24.939
ATOM      3  C   UNL     1      13.605  20.312   6.040 -0.20 +0.00    +0.175    24.939
ATOM      4  C   UNL     1      14.998  19.689   5.765 -0.30 -0.02    +0.114    24.939
ATOM      5  N   UNL     1      16.022  20.558   5.107 -0.15 +0.11    -0.280    24.939
ATOM      6  C   UNL     1      17.344  19.838   5.189 -0.27 -0.07    +0.208    24.939
ATOM      7  C   UNL     1      18.012  19.997   6.556 -0.19 -0.12    +0.317    24.939
ATOM      8  O   UNL     1      18.605  19.114   7.149 -0.22 +0.06    -0.251    24.939
ATOM      9  O   UNL     1      17.823  21.240   7.075 -0.01 +0.25    -0.480    24.939
ATOM     10  H   UNL     1      17.310  21.768   6.425 -0.28 -0.24    +0.296    24.939
ATOM     11  C   UNL     1      15.697  20.882   3.685 -0.21 -0.10    +0.208    24.939
ATOM     12  C   UNL     1      14.661  21.981   3.524 -0.23 -0.27    +0.317    24.939
ATOM     13  O   UNL     1      13.472  21.788   3.322 -0.26 +0.15    -0.251    24.939
ATOM     14  O   UNL     1      15.162  23.215   3.703 -0.13 +0.81    -0.480    24.939
ATOM     15  H   UNL     1      14.468  23.915   3.628 -0.32 -0.67    +0.296    24.939
ATOM     16  C   UNL     1      15.337  22.892   7.700 -0.28 -0.11    +0.188    24.939
ATOM     17  O   UNL     1      14.927  24.275   7.746 -0.17 +0.42    -0.378    24.939
ATOM     18  C   UNL     1      13.511  24.372   8.014 -0.30 -0.11    +0.175    24.939
ATOM     19  C   UNL     1      12.946  25.787   7.718 -0.35 -0.10    +0.114    24.939
ATOM     20  N   UNL     1      11.596  25.798   7.092 -0.16 +0.14    -0.280    24.939
ATOM     21  C   UNL     1      11.669  25.847   5.611 -0.24 -0.15    +0.208    24.939
ATOM     22  C   UNL     1      12.854  25.116   4.984 -0.26 -0.36    +0.317    24.939
ATOM     23  O   UNL     1      13.906  25.655   4.672 -0.44 +0.50    -0.251    24.939
ATOM     24  O   UNL     1      12.618  23.801   4.744 -0.04 +0.37    -0.480    24.939
ATOM     25  H   UNL     1      13.409  23.240   4.923 +0.19 -0.24    +0.296    24.939
ATOM     26  C   UNL     1      10.779  24.611   7.484 -0.26 -0.05    +0.208    24.939
ATOM     27  C   UNL     1       9.620  25.032   8.383 -0.26 -0.06    +0.317    24.939
ATOM     28  O   UNL     1       9.135  24.346   9.267 -0.41 +0.02    -0.251    24.939
ATOM     29  O   UNL     1       9.146  26.265   8.059 -0.07 +0.13    -0.480    24.939
ATOM     30  H   UNL     1       9.928  26.844   7.899 +0.21 -0.08    +0.296    24.939
TER
ENDMDL


AVSFLD: # AVS field file
AVSFLD: #
AVSFLD: # Created by AutoDock
AVSFLD: #
AVSFLD: ndim=2           # number of dimensions in the field
AVSFLD: nspace=1         # number of physical coordinates
AVSFLD: veclen=7         # vector size
AVSFLD: dim1=30          # atoms
AVSFLD: dim2=8           # conformations
AVSFLD: data=Real       # data type (byte,integer,Real,double)
AVSFLD: field=uniform    # field coordinate layout
AVSFLD: label= x y z vdW Elec q RMS
AVSFLD: variable 1 file = EGTA.dlg.pdb filetype = ascii offset = 5 stride = 12
AVSFLD: variable 2 file = EGTA.dlg.pdb filetype = ascii offset = 6 stride = 12
AVSFLD: variable 3 file = EGTA.dlg.pdb filetype = ascii offset = 7 stride = 12
AVSFLD: variable 4 file = EGTA.dlg.pdb filetype = ascii offset = 8 stride = 12
AVSFLD: variable 5 file = EGTA.dlg.pdb filetype = ascii offset = 9 stride = 12
AVSFLD: variable 6 file = EGTA.dlg.pdb filetype = ascii offset = 10 stride = 12
AVSFLD: variable 7 file = EGTA.dlg.pdb filetype = ascii offset = 11 stride = 12
AVSFLD: # end of file

>>> Closing the docking parameter file (DPF)...
This docking finished at:			0:23 47" a.m., 09/14/2026


________________________________________________________________________________

autodock4: Successful Completion on "VP"

Real= 3m 39.43s,  CPU= 3m 39.25s,  System= 0.05s
________________________________________________________________________________

