          AutoDock 4.2 Release 4.2.6   
         (C) 1989-2012 The Scripps Research Institute
        AutoDock comes with ABSOLUTELY NO WARRANTY.
        AutoDock is free software, and you are welcome
        to redistribute it under certain conditions;
        for details type 'autodock4 -C'

                     main.cc  $Revision: 1.213 $

                   Compiled on Dec 11 2024 at 15:52:35


This file was created at:			0:19 56" a.m., 09/14/2026
                   on host:		"VP"
Current Working Directory = "/home/vishishtaapandit28/docking-pipeline-project/results/1HSG/ad4_grids"

      ________________________________________________________________

                   SETTING UP DEFAULT PARAMETER LIBRARY
      ________________________________________________________________


Random number generator was seeded with values 95825, 1789325396.
Docking parameter file (DPF) used for this docking:		malonic_acid.dpf
DPF> autodock_parameter_version 4.2

	Autodock parameter version 4.2.
DPF> outlev 1

Output Level = 1  ADT-COMPATIBLE OUTPUT DURING DOCKING.
DPF> intelec

Electrostatic energies will be calculated for all non-bonds between moving atoms.
DPF> seed pid time

Random number generator was seeded with values 95825, 1789325396.
DPF> ligand_types C HD OA

DPF> fld receptor.maps.fld

Opening Grid Map Dimensions file:		receptor.maps.fld
Grid Point Spacing =				0.375 Angstroms

Even Number of User-specified Grid Points =	62 x-points
						48 y-points
						46 z-points

Coordinates of Central Grid Point of Maps =	(13.073, 22.467, 5.557)
Macromolecule file used to create Grid Maps =	receptor.pdbqt
Grid Parameter file used to create Grid Maps =	receptor.gpf
Minimum coordinates in grid = (1.448, 13.467, -3.068)
Maximum coordinates in grid = (24.698, 31.467, 14.182)

DPF> map receptor.C.map

DPF> map receptor.HD.map

DPF> map receptor.OA.map

DPF> elecmap receptor.e.map

DPF> desolvmap receptor.d.map

DPF> move malonic_acid.pdbqt

1,4-interactions will be _ignored_ in the non-bonded internal energy calculation.

Ligand PDBQT file = "malonic_acid.pdbqt"

INPUT LIGAND PDBQT FILE:
________________________

INPUT-LIGAND-PDBQT: REMARK SMILES O=C(O)CC(=O)O
INPUT-LIGAND-PDBQT: REMARK SMILES IDX 4 1 2 2 1 3 3 4 5 6 6 7 7 8
INPUT-LIGAND-PDBQT: REMARK H PARENT 3 5 7 9
INPUT-LIGAND-PDBQT: ROOT
INPUT-LIGAND-PDBQT: ATOM      1  C   UNL     1       3.340   0.293   1.058  1.00  0.00    +0.244 C 
INPUT-LIGAND-PDBQT: ENDROOT
INPUT-LIGAND-PDBQT: BRANCH   1   2
INPUT-LIGAND-PDBQT: ATOM      2  C   UNL     1       2.541  -0.084  -0.158  1.00  0.00    +0.314 C 
INPUT-LIGAND-PDBQT: ATOM      3  O   UNL     1       1.315  -0.076  -0.133  1.00  0.00    -0.252 OA
INPUT-LIGAND-PDBQT: BRANCH   2   4
INPUT-LIGAND-PDBQT: ATOM      4  O   UNL     1       3.212  -0.428  -1.273  1.00  0.00    -0.481 OA
INPUT-LIGAND-PDBQT: ATOM      5  H   UNL     1       4.198  -0.406  -1.200  1.00  0.00    +0.296 HD
INPUT-LIGAND-PDBQT: ENDBRANCH   2   4
INPUT-LIGAND-PDBQT: ENDBRANCH   1   2
INPUT-LIGAND-PDBQT: BRANCH   1   6
INPUT-LIGAND-PDBQT: ATOM      6  C   UNL     1       4.826   0.253   0.928  1.00  0.00    +0.314 C 
INPUT-LIGAND-PDBQT: ATOM      7  O   UNL     1       5.413  -0.065  -0.098  1.00  0.00    -0.252 OA
INPUT-LIGAND-PDBQT: BRANCH   6   8
INPUT-LIGAND-PDBQT: ATOM      8  O   UNL     1       5.480   0.601   2.057  1.00  0.00    -0.481 OA
INPUT-LIGAND-PDBQT: ATOM      9  H   UNL     1       4.908   0.836   2.814  1.00  0.00    +0.296 HD
INPUT-LIGAND-PDBQT: ENDBRANCH   6   8
INPUT-LIGAND-PDBQT: ENDBRANCH   1   6
INPUT-LIGAND-PDBQT: TORSDOF 4
________________________________________________________________________________

Total charge on ligand                               =	-0.002 e
REMARK SMILES O=C(O)CC(=O)O
REMARK SMILES IDX 4 1 2 2 1 3 3 4 5 6 6 7 7 8
REMARK H PARENT 3 5 7 9


Number of Rotatable Bonds in Small Molecule =	4 torsions
Number of atoms in ligand:  9

Number of non-hydrogen atoms in ligand:  7

Number of vibrational degrees of freedom of ligand:  21


Number of torsional degrees of freedom = 4
Estimated loss of torsional free energy upon binding = +1.1932 kcal/mol


DPF> about 3.9147777777777772 0.10266666666666664 0.4438888888888889

Small molecule center of rotation =	(+3.915, +0.103, +0.444)

DPF> tran0 random

Initial translation =			(11.002, 20.671, -1.797) Angstroms
DPF> quat0 random

Each run will begin with a new, random initial orientation.
Initial quaternion,  (x,y,z,w) =	( 0.272, -0.428, 0.764, 0.398 ),
DPF> dihe0 random

DPF> tstep 2.0

Initial simanneal cycle, maximum translation step = +/- 2.0 Angstroms
DPF> qstep 50.0

Initial simanneal cycle, maximum quaternion angle step = +/- 50.0 deg
DPF> dstep 50.0

Initial simanneal cycle, maximum torsion angle step = +/- 50.0 deg
DPF> torsdof 4

Number of torsional degrees of freedom = 4
Free energy coefficient for torsional degrees of freedom = 0.2983, the factory default value.

Estimated loss of torsional free energy upon binding = +1.1932 kcal/mol

DPF> rmstol 2.0

Maximum RMS tolerance for conformational cluster analysis = 2.00 Angstroms
DPF> extnrg 1000.0

External grid energy (beyond grid map walls) = 1000.00

DPF> e0max 0.0 10000

Using user-specified maximum number of retries for simanneal initialization, 10000 retries.
If the simanneal initial energy is greater than e0max, 0.000,
then a new, random initial state will be created.

DPF> ga_pop_size 150

A population of 150 individuals will be used
DPF> ga_num_evals 2500000

There will be at most 2500000 function evaluations used.
DPF> ga_num_generations 27000

The GA will run for at most 27000 generations.
DPF> ga_elitism 1

The 1 best will be preserved each GA generation.
DPF> ga_mutation_rate 0.02

The mutation rate is 0.020000.
DPF> ga_crossover_rate 0.8

The crossover rate is 0.800000.
DPF> ga_window_size 10

The GA's selection window is 10 generations.
DPF> ga_cauchy_alpha 0.0

The alpha parameter (for the Cauchy distribution) is being set to 0.000000.
DPF> ga_cauchy_beta 1.0

The beta parameter (for the Cauchy distribution) is being set to 1.000000.
DPF> set_ga

DPF> sw_max_its 300

Solis & Wets algorithms will perform at most 300 iterations.
DPF> sw_max_succ 4

Solis & Wets algorithms expand rho every 4 in a row successes.
DPF> sw_max_fail 4

Solis & Wets algorithms contract rho every 4 in a row failures.
DPF> sw_rho 1.0

rho is set to 1.000000.
DPF> sw_lb_rho 0.01

rho will never get smaller than 0.010000.
DPF> ls_search_freq 0.06

Local search will be performed with frequency 0.060000.
DPF> set_psw1

Creating a new Local Search object using the pseudo-Solis-Wets algorithm (pSW1) with the current settings.

DPF> unbound_model bound

DPF> ga_run 10

centering ligand on specified point: 3.915 0.103 0.444
Furthest true ligand atom from "about" center is 2.672 Angstroms (maxrad).
Number of requested GA dockings = 10 runs
Unbound model to be used is 'same as bound' [AutoDock 4.2 default].

	BEGINNING GENETIC ALGORITHM DOCKING 1 of 10
Run: 1 Seed: 437033265 715306518 [ Run 1 of 10 GA/GALS ]
Beginning LAMARCKIAN GENETIC ALGORITHM (LGA), with a maximum of 2500000 energy evaluations.

Final-Value: -5.050


	FINAL GENETIC ALGORITHM DOCKED STATE
	_______________________________________________


Detailed state:  trans 7.394 27.760 7.410 quatxyzw -0.759578 -0.360249 -0.106177 0.531025 center 3.915 0.103 0.444 ntor 4 44.6460 -50.8113 -35.4561 -119.5336
State:	  7.394  27.760   7.410  -0.896 -0.425 -0.125 115.851     44.65  -50.81  -35.46 -119.53

DOCKED: MODEL        1
DOCKED: USER    Run = 1
DOCKED: USER    DPF = malonic_acid.dpf
DOCKED: USER  
DOCKED: USER    Estimated Free Energy of Binding    =   -3.12 kcal/mol  [=(1)+(2)+(3)-(4)]
DOCKED: USER    Estimated Inhibition Constant, Ki   =    5.21 mM (millimolar)  [Temperature = 298.15 K]
DOCKED: USER    
DOCKED: USER    (1) Final Intermolecular Energy     =   -4.31 kcal/mol
DOCKED: USER        vdW + Hbond + desolv Energy     =   -3.84 kcal/mol
DOCKED: USER        Electrostatic Energy            =   -0.47 kcal/mol
DOCKED: USER    (2) Final Total Internal Energy     =   -0.74 kcal/mol
DOCKED: USER    (3) Torsional Free Energy           =   +1.19 kcal/mol
DOCKED: USER    (4) Unbound System's Energy  [=(2)] =   -0.74 kcal/mol
DOCKED: USER    
DOCKED: USER    
DOCKED: USER    NEWDPF move malonic_acid.pdbqt
DOCKED: USER    NEWDPF about 3.914778 0.102667 0.443889
DOCKED: USER    NEWDPF tran0 7.393560 27.760410 7.409556
DOCKED: USER    NEWDPF quaternion0 -0.759578 -0.360249 -0.106177 0.531025
DOCKED: USER    NEWDPF axisangle0 -0.896410 -0.425145 -0.125304 115.850503
DOCKED: USER    NEWDPF quat0 -0.896410 -0.425145 -0.125304 115.850503
DOCKED: USER    NEWDPF dihe0 44.65 -50.81 -35.46 -119.53 
DOCKED: USER  keepresnum = 1 
DOCKED: USER  
DOCKED: REMARK SMILES O=C(O)CC(=O)O
DOCKED: REMARK SMILES IDX 4 1 2 2 1 3 3 4 5 6 6 7 7 8
DOCKED: REMARK H PARENT 3 5 7 9
DOCKED: USER                              x       y       z     vdW  Elec       q    Type
DOCKED: USER                           _______ _______ _______ _____ _____    ______ ____
DOCKED: ROOT
DOCKED: ATOM      1  C   UNL     1       7.398  26.899   7.451 -0.28 -0.08    +0.244 C 
DOCKED: ENDROOT
DOCKED: BRANCH   1   2
DOCKED: ATOM      2  C   UNL     1       5.999  27.326   7.798 -0.24 -0.08    +0.314 C 
DOCKED: ATOM      3  O   UNL     1       5.032  26.655   7.453 -0.77 -0.02    -0.252 OA
DOCKED: BRANCH   2   4
DOCKED: ATOM      4  O   UNL     1       5.841  28.465   8.498 -0.09 +0.32    -0.481 OA
DOCKED: ATOM      5  H   UNL     1       6.387  29.231   8.192 -0.39 -0.45    +0.296 HD
DOCKED: ENDBRANCH   2   4
DOCKED: ENDBRANCH   1   2
DOCKED: BRANCH   1   6
DOCKED: ATOM      6  C   UNL     1       8.376  27.982   7.141 -0.29 -0.12    +0.314 C 
DOCKED: ATOM      7  O   UNL     1       8.956  28.091   6.068 -0.87 +0.06    -0.252 OA
DOCKED: BRANCH   6   8
DOCKED: ATOM      8  O   UNL     1       8.574  28.844   8.160 -0.63 +0.25    -0.481 OA
DOCKED: ATOM      9  H   UNL     1       7.761  29.220   8.552 -0.29 -0.35    +0.296 HD
DOCKED: ENDBRANCH   6   8
DOCKED: ENDBRANCH   1   6
DOCKED: TORSDOF 4
DOCKED: TER
DOCKED: ENDMDL
________________________________________________________________________________


	BEGINNING GENETIC ALGORITHM DOCKING 2 of 10
Run: 2 Seed: 882487050 859422482 [ Run 2 of 10 GA/GALS ]
Beginning LAMARCKIAN GENETIC ALGORITHM (LGA), with a maximum of 2500000 energy evaluations.

Final-Value: -5.066


	FINAL GENETIC ALGORITHM DOCKED STATE
	_______________________________________________


Detailed state:  trans 7.237 27.869 7.423 quatxyzw 0.668076 0.387280 0.127696 -0.622401 center 3.915 0.103 0.444 ntor 4 41.6820 -21.5802 -46.3902 -118.7722
State:	  7.237  27.869   7.423   0.854  0.495  0.163 -103.017     41.68  -21.58  -46.39 -118.77

DOCKED: MODEL        2
DOCKED: USER    Run = 2
DOCKED: USER    DPF = malonic_acid.dpf
DOCKED: USER  
DOCKED: USER    Estimated Free Energy of Binding    =   -3.06 kcal/mol  [=(1)+(2)+(3)-(4)]
DOCKED: USER    Estimated Inhibition Constant, Ki   =    5.67 mM (millimolar)  [Temperature = 298.15 K]
DOCKED: USER    
DOCKED: USER    (1) Final Intermolecular Energy     =   -4.26 kcal/mol
DOCKED: USER        vdW + Hbond + desolv Energy     =   -3.76 kcal/mol
DOCKED: USER        Electrostatic Energy            =   -0.49 kcal/mol
DOCKED: USER    (2) Final Total Internal Energy     =   -0.81 kcal/mol
DOCKED: USER    (3) Torsional Free Energy           =   +1.19 kcal/mol
DOCKED: USER    (4) Unbound System's Energy  [=(2)] =   -0.81 kcal/mol
DOCKED: USER    
DOCKED: USER    
DOCKED: USER    NEWDPF move malonic_acid.pdbqt
DOCKED: USER    NEWDPF about 3.914778 0.102667 0.443889
DOCKED: USER    NEWDPF tran0 7.236738 27.868961 7.422995
DOCKED: USER    NEWDPF quaternion0 0.668076 0.387280 0.127696 -0.622401
DOCKED: USER    NEWDPF axisangle0 0.853554 0.494801 0.163149 -103.016672
DOCKED: USER    NEWDPF quat0 0.853554 0.494801 0.163149 -103.016672
DOCKED: USER    NEWDPF dihe0 41.68 -21.58 -46.39 -118.77 
DOCKED: USER  keepresnum = 1 
DOCKED: USER  
DOCKED: REMARK SMILES O=C(O)CC(=O)O
DOCKED: REMARK SMILES IDX 4 1 2 2 1 3 3 4 5 6 6 7 7 8
DOCKED: REMARK H PARENT 3 5 7 9
DOCKED: USER                              x       y       z     vdW  Elec       q    Type
DOCKED: USER                           _______ _______ _______ _____ _____    ______ ____
DOCKED: ROOT
DOCKED: ATOM      1  C   UNL     1       7.322  27.044   7.661 -0.30 -0.08    +0.244 C 
DOCKED: ENDROOT
DOCKED: BRANCH   1   2
DOCKED: ATOM      2  C   UNL     1       5.860  27.367   7.793 -0.23 -0.08    +0.314 C 
DOCKED: ATOM      3  O   UNL     1       5.005  26.605   7.355 -0.79 -0.02    -0.252 OA
DOCKED: BRANCH   2   4
DOCKED: ATOM      4  O   UNL     1       5.519  28.515   8.408 -0.07 +0.29    -0.481 OA
DOCKED: ATOM      5  H   UNL     1       6.071  29.302   8.175 -0.39 -0.45    +0.296 HD
DOCKED: ENDBRANCH   2   4
DOCKED: ENDBRANCH   1   2
DOCKED: BRANCH   1   6
DOCKED: ATOM      6  C   UNL     1       8.215  28.142   7.186 -0.30 -0.13    +0.314 C 
DOCKED: ATOM      7  O   UNL     1       8.875  28.087   6.157 -0.86 +0.07    -0.252 OA
DOCKED: BRANCH   6   8
DOCKED: ATOM      8  O   UNL     1       8.234  29.218   8.001 -0.47 +0.36    -0.481 OA
DOCKED: ATOM      9  H   UNL     1       7.460  29.308   8.590 -0.36 -0.45    +0.296 HD
DOCKED: ENDBRANCH   6   8
DOCKED: ENDBRANCH   1   6
DOCKED: TORSDOF 4
DOCKED: TER
DOCKED: ENDMDL
________________________________________________________________________________


	BEGINNING GENETIC ALGORITHM DOCKING 3 of 10
Run: 3 Seed: 158194071 879931523 [ Run 3 of 10 GA/GALS ]
Beginning LAMARCKIAN GENETIC ALGORITHM (LGA), with a maximum of 2500000 energy evaluations.

Final-Value: -5.101


	FINAL GENETIC ALGORITHM DOCKED STATE
	_______________________________________________


Detailed state:  trans 6.942 27.658 7.578 quatxyzw 0.023297 -0.515329 0.850316 -0.104193 center 3.915 0.103 0.444 ntor 4 -33.9225 44.4075 65.8268 139.2362
State:	  6.942  27.658   7.578   0.023 -0.518  0.855 -168.039    -33.92   44.41   65.83  139.24

DOCKED: MODEL        3
DOCKED: USER    Run = 3
DOCKED: USER    DPF = malonic_acid.dpf
DOCKED: USER  
DOCKED: USER    Estimated Free Energy of Binding    =   -3.08 kcal/mol  [=(1)+(2)+(3)-(4)]
DOCKED: USER    Estimated Inhibition Constant, Ki   =    5.48 mM (millimolar)  [Temperature = 298.15 K]
DOCKED: USER    
DOCKED: USER    (1) Final Intermolecular Energy     =   -4.28 kcal/mol
DOCKED: USER        vdW + Hbond + desolv Energy     =   -3.83 kcal/mol
DOCKED: USER        Electrostatic Energy            =   -0.45 kcal/mol
DOCKED: USER    (2) Final Total Internal Energy     =   -0.82 kcal/mol
DOCKED: USER    (3) Torsional Free Energy           =   +1.19 kcal/mol
DOCKED: USER    (4) Unbound System's Energy  [=(2)] =   -0.82 kcal/mol
DOCKED: USER    
DOCKED: USER    
DOCKED: USER    NEWDPF move malonic_acid.pdbqt
DOCKED: USER    NEWDPF about 3.914778 0.102667 0.443889
DOCKED: USER    NEWDPF tran0 6.941945 27.658243 7.577557
DOCKED: USER    NEWDPF quaternion0 0.023297 -0.515329 0.850316 -0.104193
DOCKED: USER    NEWDPF axisangle0 0.023425 -0.518150 0.854969 -168.038599
DOCKED: USER    NEWDPF quat0 0.023425 -0.518150 0.854969 -168.038599
DOCKED: USER    NEWDPF dihe0 -33.92 44.41 65.83 139.24 
DOCKED: USER  keepresnum = 1 
DOCKED: USER  
DOCKED: REMARK SMILES O=C(O)CC(=O)O
DOCKED: REMARK SMILES IDX 4 1 2 2 1 3 3 4 5 6 6 7 7 8
DOCKED: REMARK H PARENT 3 5 7 9
DOCKED: USER                              x       y       z     vdW  Elec       q    Type
DOCKED: USER                           _______ _______ _______ _____ _____    ______ ____
DOCKED: ROOT
DOCKED: ATOM      1  C   UNL     1       7.424  26.944   7.614 -0.29 -0.08    +0.244 C 
DOCKED: ENDROOT
DOCKED: BRANCH   1   2
DOCKED: ATOM      2  C   UNL     1       8.363  28.062   7.257 -0.30 -0.12    +0.314 C 
DOCKED: ATOM      3  O   UNL     1       8.919  28.091   6.164 -0.86 +0.06    -0.252 OA
DOCKED: BRANCH   2   4
DOCKED: ATOM      4  O   UNL     1       8.572  29.028   8.170 -0.58 +0.26    -0.481 OA
DOCKED: ATOM      5  H   UNL     1       7.795  29.251   8.740 -0.31 -0.36    +0.296 HD
DOCKED: ENDBRANCH   2   4
DOCKED: ENDBRANCH   1   2
DOCKED: BRANCH   1   6
DOCKED: ATOM      6  C   UNL     1       5.988  27.304   7.807 -0.24 -0.08    +0.314 C 
DOCKED: ATOM      7  O   UNL     1       5.054  26.623   7.406 -0.77 -0.02    -0.252 OA
DOCKED: BRANCH   6   8
DOCKED: ATOM      8  O   UNL     1       5.804  28.465   8.471 -0.09 +0.32    -0.481 OA
DOCKED: ATOM      9  H   UNL     1       6.379  29.203   8.187 -0.38 -0.44    +0.296 HD
DOCKED: ENDBRANCH   6   8
DOCKED: ENDBRANCH   1   6
DOCKED: TORSDOF 4
DOCKED: TER
DOCKED: ENDMDL
________________________________________________________________________________


	BEGINNING GENETIC ALGORITHM DOCKING 4 of 10
Run: 4 Seed: 1595347814 372698453 [ Run 4 of 10 GA/GALS ]
Beginning LAMARCKIAN GENETIC ALGORITHM (LGA), with a maximum of 2500000 energy evaluations.

Final-Value: -4.981


	FINAL GENETIC ALGORITHM DOCKED STATE
	_______________________________________________


Detailed state:  trans 18.745 16.926 5.125 quatxyzw 0.607006 -0.542740 0.173920 -0.553831 center 3.915 0.103 0.444 ntor 4 67.2332 -36.6022 -31.5454 173.8906
State:	 18.745  16.926   5.125   0.729 -0.652  0.209 -112.740     67.23  -36.60  -31.55  173.89

DOCKED: MODEL        4
DOCKED: USER    Run = 4
DOCKED: USER    DPF = malonic_acid.dpf
DOCKED: USER  
DOCKED: USER    Estimated Free Energy of Binding    =   -3.08 kcal/mol  [=(1)+(2)+(3)-(4)]
DOCKED: USER    Estimated Inhibition Constant, Ki   =    5.52 mM (millimolar)  [Temperature = 298.15 K]
DOCKED: USER    
DOCKED: USER    (1) Final Intermolecular Energy     =   -4.27 kcal/mol
DOCKED: USER        vdW + Hbond + desolv Energy     =   -3.78 kcal/mol
DOCKED: USER        Electrostatic Energy            =   -0.50 kcal/mol
DOCKED: USER    (2) Final Total Internal Energy     =   -0.71 kcal/mol
DOCKED: USER    (3) Torsional Free Energy           =   +1.19 kcal/mol
DOCKED: USER    (4) Unbound System's Energy  [=(2)] =   -0.71 kcal/mol
DOCKED: USER    
DOCKED: USER    
DOCKED: USER    NEWDPF move malonic_acid.pdbqt
DOCKED: USER    NEWDPF about 3.914778 0.102667 0.443889
DOCKED: USER    NEWDPF tran0 18.744879 16.926084 5.125001
DOCKED: USER    NEWDPF quaternion0 0.607006 -0.542740 0.173920 -0.553831
DOCKED: USER    NEWDPF axisangle0 0.729023 -0.651839 0.208881 -112.739575
DOCKED: USER    NEWDPF quat0 0.729023 -0.651839 0.208881 -112.739575
DOCKED: USER    NEWDPF dihe0 67.23 -36.60 -31.55 173.89 
DOCKED: USER  keepresnum = 1 
DOCKED: USER  
DOCKED: REMARK SMILES O=C(O)CC(=O)O
DOCKED: REMARK SMILES IDX 4 1 2 2 1 3 3 4 5 6 6 7 7 8
DOCKED: REMARK H PARENT 3 5 7 9
DOCKED: USER                              x       y       z     vdW  Elec       q    Type
DOCKED: USER                           _______ _______ _______ _____ _____    ______ ____
DOCKED: ROOT
DOCKED: ATOM      1  C   UNL     1      18.142  16.704   4.550 -0.31 -0.06    +0.244 C 
DOCKED: ENDROOT
DOCKED: BRANCH   1   2
DOCKED: ATOM      2  C   UNL     1      18.657  18.047   4.115 -0.28 -0.12    +0.314 C 
DOCKED: ATOM      3  O   UNL     1      18.693  18.353   2.928 -0.93 +0.07    -0.252 OA
DOCKED: BRANCH   2   4
DOCKED: ATOM      4  O   UNL     1      19.075  18.902   5.067 -0.70 +0.24    -0.481 OA
DOCKED: ATOM      5  H   UNL     1      19.892  18.630   5.554 -0.08 -0.38    +0.296 HD
DOCKED: ENDBRANCH   2   4
DOCKED: ENDBRANCH   1   2
DOCKED: BRANCH   1   6
DOCKED: ATOM      6  C   UNL     1      18.747  16.115   5.780 -0.22 -0.05    +0.314 C 
DOCKED: ATOM      7  O   UNL     1      18.352  15.084   6.309 -0.79 -0.05    -0.252 OA
DOCKED: BRANCH   6   8
DOCKED: ATOM      8  O   UNL     1      19.784  16.828   6.271 -0.08 +0.19    -0.481 OA
DOCKED: ATOM      9  H   UNL     1      20.363  17.238   5.598 -0.40 -0.33    +0.296 HD
DOCKED: ENDBRANCH   6   8
DOCKED: ENDBRANCH   1   6
DOCKED: TORSDOF 4
DOCKED: TER
DOCKED: ENDMDL
________________________________________________________________________________


	BEGINNING GENETIC ALGORITHM DOCKING 5 of 10
Run: 5 Seed: 1654687796 577159833 [ Run 5 of 10 GA/GALS ]
Beginning LAMARCKIAN GENETIC ALGORITHM (LGA), with a maximum of 2500000 energy evaluations.

Final-Value: -4.818


	FINAL GENETIC ALGORITHM DOCKED STATE
	_______________________________________________


Detailed state:  trans 7.244 28.090 7.144 quatxyzw 0.978594 0.163196 0.076834 0.099087 center 3.915 0.103 0.444 ntor 4 11.3605 20.0504 50.5378 144.6780
State:	  7.244  28.090   7.144   0.983  0.164  0.077 168.627     11.36   20.05   50.54  144.68

DOCKED: MODEL        5
DOCKED: USER    Run = 5
DOCKED: USER    DPF = malonic_acid.dpf
DOCKED: USER  
DOCKED: USER    Estimated Free Energy of Binding    =   -2.84 kcal/mol  [=(1)+(2)+(3)-(4)]
DOCKED: USER    Estimated Inhibition Constant, Ki   =    8.23 mM (millimolar)  [Temperature = 298.15 K]
DOCKED: USER    
DOCKED: USER    (1) Final Intermolecular Energy     =   -4.04 kcal/mol
DOCKED: USER        vdW + Hbond + desolv Energy     =   -3.49 kcal/mol
DOCKED: USER        Electrostatic Energy            =   -0.55 kcal/mol
DOCKED: USER    (2) Final Total Internal Energy     =   -0.78 kcal/mol
DOCKED: USER    (3) Torsional Free Energy           =   +1.19 kcal/mol
DOCKED: USER    (4) Unbound System's Energy  [=(2)] =   -0.78 kcal/mol
DOCKED: USER    
DOCKED: USER    
DOCKED: USER    NEWDPF move malonic_acid.pdbqt
DOCKED: USER    NEWDPF about 3.914778 0.102667 0.443889
DOCKED: USER    NEWDPF tran0 7.243987 28.089808 7.144332
DOCKED: USER    NEWDPF quaternion0 0.978594 0.163196 0.076834 0.099087
DOCKED: USER    NEWDPF axisangle0 0.983433 0.164003 0.077214 168.626761
DOCKED: USER    NEWDPF quat0 0.983433 0.164003 0.077214 168.626761
DOCKED: USER    NEWDPF dihe0 11.36 20.05 50.54 144.68 
DOCKED: USER  keepresnum = 1 
DOCKED: USER  
DOCKED: REMARK SMILES O=C(O)CC(=O)O
DOCKED: REMARK SMILES IDX 4 1 2 2 1 3 3 4 5 6 6 7 7 8
DOCKED: REMARK H PARENT 3 5 7 9
DOCKED: USER                              x       y       z     vdW  Elec       q    Type
DOCKED: USER                           _______ _______ _______ _____ _____    ______ ____
DOCKED: ROOT
DOCKED: ATOM      1  C   UNL     1       6.843  27.873   6.412 -0.24 -0.12    +0.244 C 
DOCKED: ENDROOT
DOCKED: BRANCH   1   2
DOCKED: ATOM      2  C   UNL     1       5.826  27.713   7.508 -0.23 -0.10    +0.314 C 
DOCKED: ATOM      3  O   UNL     1       5.177  26.678   7.618 -0.72 -0.01    -0.252 OA
DOCKED: BRANCH   2   4
DOCKED: ATOM      4  O   UNL     1       5.652  28.738   8.362 -0.04 +0.39    -0.481 OA
DOCKED: ATOM      5  H   UNL     1       6.082  29.589   8.099 -0.37 -0.56    +0.296 HD
DOCKED: ENDBRANCH   2   4
DOCKED: ENDBRANCH   1   2
DOCKED: BRANCH   1   6
DOCKED: ATOM      6  C   UNL     1       8.203  28.334   6.817 -0.25 -0.14    +0.314 C 
DOCKED: ATOM      7  O   UNL     1       9.238  27.955   6.284 -0.80 +0.06    -0.252 OA
DOCKED: BRANCH   6   8
DOCKED: ATOM      8  O   UNL     1       8.197  29.217   7.838 -0.49 +0.35    -0.481 OA
DOCKED: ATOM      9  H   UNL     1       7.384  29.220   8.381 -0.35 -0.40    +0.296 HD
DOCKED: ENDBRANCH   6   8
DOCKED: ENDBRANCH   1   6
DOCKED: TORSDOF 4
DOCKED: TER
DOCKED: ENDMDL
________________________________________________________________________________


	BEGINNING GENETIC ALGORITHM DOCKING 6 of 10
Run: 6 Seed: 1807887720 1869210309 [ Run 6 of 10 GA/GALS ]
Beginning LAMARCKIAN GENETIC ALGORITHM (LGA), with a maximum of 2500000 energy evaluations.

Final-Value: -5.011


	FINAL GENETIC ALGORITHM DOCKED STATE
	_______________________________________________


Detailed state:  trans 6.674 27.981 7.207 quatxyzw -0.217362 0.903858 -0.109696 0.351796 center 3.915 0.103 0.444 ntor 4 -20.8964 17.6950 -43.7513 -129.9158
State:	  6.674  27.981   7.207  -0.232  0.966 -0.117 138.806    -20.90   17.70  -43.75 -129.92

DOCKED: MODEL        6
DOCKED: USER    Run = 6
DOCKED: USER    DPF = malonic_acid.dpf
DOCKED: USER  
DOCKED: USER    Estimated Free Energy of Binding    =   -3.13 kcal/mol  [=(1)+(2)+(3)-(4)]
DOCKED: USER    Estimated Inhibition Constant, Ki   =    5.11 mM (millimolar)  [Temperature = 298.15 K]
DOCKED: USER    
DOCKED: USER    (1) Final Intermolecular Energy     =   -4.32 kcal/mol
DOCKED: USER        vdW + Hbond + desolv Energy     =   -3.56 kcal/mol
DOCKED: USER        Electrostatic Energy            =   -0.76 kcal/mol
DOCKED: USER    (2) Final Total Internal Energy     =   -0.69 kcal/mol
DOCKED: USER    (3) Torsional Free Energy           =   +1.19 kcal/mol
DOCKED: USER    (4) Unbound System's Energy  [=(2)] =   -0.69 kcal/mol
DOCKED: USER    
DOCKED: USER    
DOCKED: USER    NEWDPF move malonic_acid.pdbqt
DOCKED: USER    NEWDPF about 3.914778 0.102667 0.443889
DOCKED: USER    NEWDPF tran0 6.673948 27.980784 7.207111
DOCKED: USER    NEWDPF quaternion0 -0.217362 0.903858 -0.109696 0.351796
DOCKED: USER    NEWDPF axisangle0 -0.232206 0.965582 -0.117186 138.805577
DOCKED: USER    NEWDPF quat0 -0.232206 0.965582 -0.117186 138.805577
DOCKED: USER    NEWDPF dihe0 -20.90 17.70 -43.75 -129.92 
DOCKED: USER  keepresnum = 1 
DOCKED: USER  
DOCKED: REMARK SMILES O=C(O)CC(=O)O
DOCKED: REMARK SMILES IDX 4 1 2 2 1 3 3 4 5 6 6 7 7 8
DOCKED: REMARK H PARENT 3 5 7 9
DOCKED: USER                              x       y       z     vdW  Elec       q    Type
DOCKED: USER                           _______ _______ _______ _____ _____    ______ ____
DOCKED: ROOT
DOCKED: ATOM      1  C   UNL     1       6.601  28.114   6.358 -0.23 -0.13    +0.244 C 
DOCKED: ENDROOT
DOCKED: BRANCH   1   2
DOCKED: ATOM      2  C   UNL     1       8.020  28.461   6.715 -0.24 -0.15    +0.314 C 
DOCKED: ATOM      3  O   UNL     1       8.954  28.092   6.012 -0.88 +0.06    -0.252 OA
DOCKED: BRANCH   2   4
DOCKED: ATOM      4  O   UNL     1       8.231  29.191   7.826 -0.50 +0.34    -0.481 OA
DOCKED: ATOM      5  H   UNL     1       7.454  29.709   8.149 -0.27 -0.55    +0.296 HD
DOCKED: ENDBRANCH   2   4
DOCKED: ENDBRANCH   1   2
DOCKED: BRANCH   1   6
DOCKED: ATOM      6  C   UNL     1       5.719  27.656   7.471 -0.22 -0.10    +0.314 C 
DOCKED: ATOM      7  O   UNL     1       5.035  26.641   7.425 -0.77 -0.02    -0.252 OA
DOCKED: BRANCH   6   8
DOCKED: ATOM      8  O   UNL     1       5.737  28.468   8.549 -0.07 +0.31    -0.481 OA
DOCKED: ATOM      9  H   UNL     1       6.089  29.365   8.389 -0.38 -0.53    +0.296 HD
DOCKED: ENDBRANCH   6   8
DOCKED: ENDBRANCH   1   6
DOCKED: TORSDOF 4
DOCKED: TER
DOCKED: ENDMDL
________________________________________________________________________________


	BEGINNING GENETIC ALGORITHM DOCKING 7 of 10
Run: 7 Seed: 227571791 761858983 [ Run 7 of 10 GA/GALS ]
Beginning LAMARCKIAN GENETIC ALGORITHM (LGA), with a maximum of 2500000 energy evaluations.

Final-Value: -4.966


	FINAL GENETIC ALGORITHM DOCKED STATE
	_______________________________________________


Detailed state:  trans 18.401 16.716 4.072 quatxyzw -0.009465 -0.223898 -0.581052 -0.782405 center 3.915 0.103 0.444 ntor 4 -60.5563 -15.7131 12.1446 -135.5275
State:	 18.401  16.716   4.072  -0.015 -0.360 -0.933 -77.037    -60.56  -15.71   12.14 -135.53

DOCKED: MODEL        7
DOCKED: USER    Run = 7
DOCKED: USER    DPF = malonic_acid.dpf
DOCKED: USER  
DOCKED: USER    Estimated Free Energy of Binding    =   -3.03 kcal/mol  [=(1)+(2)+(3)-(4)]
DOCKED: USER    Estimated Inhibition Constant, Ki   =    6.03 mM (millimolar)  [Temperature = 298.15 K]
DOCKED: USER    
DOCKED: USER    (1) Final Intermolecular Energy     =   -4.22 kcal/mol
DOCKED: USER        vdW + Hbond + desolv Energy     =   -3.57 kcal/mol
DOCKED: USER        Electrostatic Energy            =   -0.65 kcal/mol
DOCKED: USER    (2) Final Total Internal Energy     =   -0.75 kcal/mol
DOCKED: USER    (3) Torsional Free Energy           =   +1.19 kcal/mol
DOCKED: USER    (4) Unbound System's Energy  [=(2)] =   -0.75 kcal/mol
DOCKED: USER    
DOCKED: USER    
DOCKED: USER    NEWDPF move malonic_acid.pdbqt
DOCKED: USER    NEWDPF about 3.914778 0.102667 0.443889
DOCKED: USER    NEWDPF tran0 18.400878 16.716497 4.072439
DOCKED: USER    NEWDPF quaternion0 -0.009465 -0.223898 -0.581052 -0.782405
DOCKED: USER    NEWDPF axisangle0 -0.015198 -0.359520 -0.933013 -77.037341
DOCKED: USER    NEWDPF quat0 -0.015198 -0.359520 -0.933013 -77.037341
DOCKED: USER    NEWDPF dihe0 -60.56 -15.71 12.14 -135.53 
DOCKED: USER  keepresnum = 1 
DOCKED: USER  
DOCKED: REMARK SMILES O=C(O)CC(=O)O
DOCKED: REMARK SMILES IDX 4 1 2 2 1 3 3 4 5 6 6 7 7 8
DOCKED: REMARK H PARENT 3 5 7 9
DOCKED: USER                              x       y       z     vdW  Elec       q    Type
DOCKED: USER                           _______ _______ _______ _____ _____    ______ ____
DOCKED: ROOT
DOCKED: ATOM      1  C   UNL     1      18.237  17.467   4.464 -0.32 -0.08    +0.244 C 
DOCKED: ENDROOT
DOCKED: BRANCH   1   2
DOCKED: ATOM      2  C   UNL     1      18.126  17.734   2.989 -0.35 -0.11    +0.314 C 
DOCKED: ATOM      3  O   UNL     1      18.070  18.881   2.559 -1.03 +0.04    -0.252 OA
DOCKED: BRANCH   2   4
DOCKED: ATOM      4  O   UNL     1      18.092  16.676   2.157 -0.22 +0.27    -0.481 OA
DOCKED: ATOM      5  H   UNL     1      18.886  16.088   2.184 -0.36 -0.47    +0.296 HD
DOCKED: ENDBRANCH   2   4
DOCKED: ENDBRANCH   1   2
DOCKED: BRANCH   1   6
DOCKED: ATOM      6  C   UNL     1      18.578  16.074   4.874 -0.23 -0.07    +0.314 C 
DOCKED: ATOM      7  O   UNL     1      18.018  15.473   5.781 -0.60 -0.03    -0.252 OA
DOCKED: BRANCH   6   8
DOCKED: ATOM      8  O   UNL     1      19.576  15.523   4.149 -0.12 +0.24    -0.481 OA
DOCKED: ATOM      9  H   UNL     1      19.786  15.982   3.313 -0.33 -0.45    +0.296 HD
DOCKED: ENDBRANCH   6   8
DOCKED: ENDBRANCH   1   6
DOCKED: TORSDOF 4
DOCKED: TER
DOCKED: ENDMDL
________________________________________________________________________________


	BEGINNING GENETIC ALGORITHM DOCKING 8 of 10
Run: 8 Seed: 88912695 2048584255 [ Run 8 of 10 GA/GALS ]
Beginning LAMARCKIAN GENETIC ALGORITHM (LGA), with a maximum of 2500000 energy evaluations.

Final-Value: -5.016


	FINAL GENETIC ALGORITHM DOCKED STATE
	_______________________________________________


Detailed state:  trans 7.057 27.803 7.970 quatxyzw -0.008410 0.745669 -0.665902 0.021945 center 3.915 0.103 0.444 ntor 4 -76.0722 39.6348 51.5124 168.5081
State:	  7.057  27.803   7.970  -0.008  0.746 -0.666 177.485    -76.07   39.63   51.51  168.51

DOCKED: MODEL        8
DOCKED: USER    Run = 8
DOCKED: USER    DPF = malonic_acid.dpf
DOCKED: USER  
DOCKED: USER    Estimated Free Energy of Binding    =   -3.06 kcal/mol  [=(1)+(2)+(3)-(4)]
DOCKED: USER    Estimated Inhibition Constant, Ki   =    5.73 mM (millimolar)  [Temperature = 298.15 K]
DOCKED: USER    
DOCKED: USER    (1) Final Intermolecular Energy     =   -4.25 kcal/mol
DOCKED: USER        vdW + Hbond + desolv Energy     =   -3.63 kcal/mol
DOCKED: USER        Electrostatic Energy            =   -0.62 kcal/mol
DOCKED: USER    (2) Final Total Internal Energy     =   -0.76 kcal/mol
DOCKED: USER    (3) Torsional Free Energy           =   +1.19 kcal/mol
DOCKED: USER    (4) Unbound System's Energy  [=(2)] =   -0.76 kcal/mol
DOCKED: USER    
DOCKED: USER    
DOCKED: USER    NEWDPF move malonic_acid.pdbqt
DOCKED: USER    NEWDPF about 3.914778 0.102667 0.443889
DOCKED: USER    NEWDPF tran0 7.056881 27.803295 7.969828
DOCKED: USER    NEWDPF quaternion0 -0.008410 0.745669 -0.665902 0.021945
DOCKED: USER    NEWDPF axisangle0 -0.008412 0.745849 -0.666062 177.485091
DOCKED: USER    NEWDPF quat0 -0.008412 0.745849 -0.666062 177.485091
DOCKED: USER    NEWDPF dihe0 -76.07 39.63 51.51 168.51 
DOCKED: USER  keepresnum = 1 
DOCKED: USER  
DOCKED: REMARK SMILES O=C(O)CC(=O)O
DOCKED: REMARK SMILES IDX 4 1 2 2 1 3 3 4 5 6 6 7 7 8
DOCKED: REMARK H PARENT 3 5 7 9
DOCKED: USER                              x       y       z     vdW  Elec       q    Type
DOCKED: USER                           _______ _______ _______ _____ _____    ______ ____
DOCKED: ROOT
DOCKED: ATOM      1  C   UNL     1       7.610  27.205   7.687 -0.31 -0.09    +0.244 C 
DOCKED: ENDROOT
DOCKED: BRANCH   1   2
DOCKED: ATOM      2  C   UNL     1       8.450  28.357   8.162 -0.35 -0.14    +0.314 C 
DOCKED: ATOM      3  O   UNL     1       9.317  28.843   7.444 -0.98 +0.05    -0.252 OA
DOCKED: BRANCH   2   4
DOCKED: ATOM      4  O   UNL     1       8.220  28.839   9.398 -0.23 +0.33    -0.481 OA
DOCKED: ATOM      5  H   UNL     1       7.412  29.400   9.492 -0.35 -0.50    +0.296 HD
DOCKED: ENDBRANCH   2   4
DOCKED: ENDBRANCH   1   2
DOCKED: BRANCH   1   6
DOCKED: ATOM      6  C   UNL     1       6.130  27.355   7.806 -0.25 -0.09    +0.314 C 
DOCKED: ATOM      7  O   UNL     1       5.323  26.598   7.282 -0.71 +0.00    -0.252 OA
DOCKED: BRANCH   6   8
DOCKED: ATOM      8  O   UNL     1       5.749  28.414   8.553 -0.06 +0.30    -0.481 OA
DOCKED: ATOM      9  H   UNL     1       6.281  29.224   8.428 -0.40 -0.48    +0.296 HD
DOCKED: ENDBRANCH   6   8
DOCKED: ENDBRANCH   1   6
DOCKED: TORSDOF 4
DOCKED: TER
DOCKED: ENDMDL
________________________________________________________________________________


	BEGINNING GENETIC ALGORITHM DOCKING 9 of 10
Run: 9 Seed: 966273099 11912087 [ Run 9 of 10 GA/GALS ]
Beginning LAMARCKIAN GENETIC ALGORITHM (LGA), with a maximum of 2500000 energy evaluations.

Final-Value: -4.873


	FINAL GENETIC ALGORITHM DOCKED STATE
	_______________________________________________


Detailed state:  trans 6.926 27.789 7.358 quatxyzw -0.204554 0.854340 -0.269901 0.394227 center 3.915 0.103 0.444 ntor 4 -12.4149 69.6085 -39.2258 -175.2394
State:	  6.926  27.789   7.358  -0.223  0.930 -0.294 133.564    -12.41   69.61  -39.23 -175.24

DOCKED: MODEL        9
DOCKED: USER    Run = 9
DOCKED: USER    DPF = malonic_acid.dpf
DOCKED: USER  
DOCKED: USER    Estimated Free Energy of Binding    =   -3.01 kcal/mol  [=(1)+(2)+(3)-(4)]
DOCKED: USER    Estimated Inhibition Constant, Ki   =    6.22 mM (millimolar)  [Temperature = 298.15 K]
DOCKED: USER    
DOCKED: USER    (1) Final Intermolecular Energy     =   -4.20 kcal/mol
DOCKED: USER        vdW + Hbond + desolv Energy     =   -3.61 kcal/mol
DOCKED: USER        Electrostatic Energy            =   -0.59 kcal/mol
DOCKED: USER    (2) Final Total Internal Energy     =   -0.67 kcal/mol
DOCKED: USER    (3) Torsional Free Energy           =   +1.19 kcal/mol
DOCKED: USER    (4) Unbound System's Energy  [=(2)] =   -0.67 kcal/mol
DOCKED: USER    
DOCKED: USER    
DOCKED: USER    NEWDPF move malonic_acid.pdbqt
DOCKED: USER    NEWDPF about 3.914778 0.102667 0.443889
DOCKED: USER    NEWDPF tran0 6.925955 27.789039 7.358266
DOCKED: USER    NEWDPF quaternion0 -0.204554 0.854340 -0.269901 0.394227
DOCKED: USER    NEWDPF axisangle0 -0.222580 0.929627 -0.293686 133.564484
DOCKED: USER    NEWDPF quat0 -0.222580 0.929627 -0.293686 133.564484
DOCKED: USER    NEWDPF dihe0 -12.41 69.61 -39.23 -175.24 
DOCKED: USER  keepresnum = 1 
DOCKED: USER  
DOCKED: REMARK SMILES O=C(O)CC(=O)O
DOCKED: REMARK SMILES IDX 4 1 2 2 1 3 3 4 5 6 6 7 7 8
DOCKED: REMARK H PARENT 3 5 7 9
DOCKED: USER                              x       y       z     vdW  Elec       q    Type
DOCKED: USER                           _______ _______ _______ _____ _____    ______ ____
DOCKED: ROOT
DOCKED: ATOM      1  C   UNL     1       6.821  27.632   6.517 -0.24 -0.10    +0.244 C 
DOCKED: ENDROOT
DOCKED: BRANCH   1   2
DOCKED: ATOM      2  C   UNL     1       8.202  28.208   6.664 -0.25 -0.13    +0.314 C 
DOCKED: ATOM      3  O   UNL     1       9.139  27.772   6.005 -0.85 +0.07    -0.252 OA
DOCKED: BRANCH   2   4
DOCKED: ATOM      4  O   UNL     1       8.376  29.215   7.540 -0.54 +0.27    -0.481 OA
DOCKED: ATOM      5  H   UNL     1       7.546  29.628   7.884 -0.24 -0.43    +0.296 HD
DOCKED: ENDBRANCH   2   4
DOCKED: ENDBRANCH   1   2
DOCKED: BRANCH   1   6
DOCKED: ATOM      6  C   UNL     1       6.017  27.479   7.765 -0.24 -0.09    +0.314 C 
DOCKED: ATOM      7  O   UNL     1       4.914  26.949   7.805 -0.74 -0.01    -0.252 OA
DOCKED: BRANCH   6   8
DOCKED: ATOM      8  O   UNL     1       6.617  27.984   8.863 -0.09 +0.24    -0.481 OA
DOCKED: ATOM      9  H   UNL     1       6.687  28.959   8.889 -0.41 -0.41    +0.296 HD
DOCKED: ENDBRANCH   6   8
DOCKED: ENDBRANCH   1   6
DOCKED: TORSDOF 4
DOCKED: TER
DOCKED: ENDMDL
________________________________________________________________________________


	BEGINNING GENETIC ALGORITHM DOCKING 10 of 10
Run: 10 Seed: 1908606829 429722532 [ Run 10 of 10 GA/GALS ]
Beginning LAMARCKIAN GENETIC ALGORITHM (LGA), with a maximum of 2500000 energy evaluations.

Final-Value: -5.158


	FINAL GENETIC ALGORITHM DOCKED STATE
	_______________________________________________


Detailed state:  trans 7.219 28.104 7.987 quatxyzw -0.916439 -0.231589 -0.317605 0.075054 center 3.915 0.103 0.444 ntor 4 -8.8899 -74.4040 36.3921 -159.7525
State:	  7.219  28.104   7.987  -0.919 -0.232 -0.319 171.391     -8.89  -74.40   36.39 -159.75

DOCKED: MODEL       10
DOCKED: USER    Run = 10
DOCKED: USER    DPF = malonic_acid.dpf
DOCKED: USER  
DOCKED: USER    Estimated Free Energy of Binding    =   -3.23 kcal/mol  [=(1)+(2)+(3)-(4)]
DOCKED: USER    Estimated Inhibition Constant, Ki   =    4.32 mM (millimolar)  [Temperature = 298.15 K]
DOCKED: USER    
DOCKED: USER    (1) Final Intermolecular Energy     =   -4.42 kcal/mol
DOCKED: USER        vdW + Hbond + desolv Energy     =   -3.73 kcal/mol
DOCKED: USER        Electrostatic Energy            =   -0.69 kcal/mol
DOCKED: USER    (2) Final Total Internal Energy     =   -0.74 kcal/mol
DOCKED: USER    (3) Torsional Free Energy           =   +1.19 kcal/mol
DOCKED: USER    (4) Unbound System's Energy  [=(2)] =   -0.74 kcal/mol
DOCKED: USER    
DOCKED: USER    
DOCKED: USER    NEWDPF move malonic_acid.pdbqt
DOCKED: USER    NEWDPF about 3.914778 0.102667 0.443889
DOCKED: USER    NEWDPF tran0 7.219153 28.104131 7.987233
DOCKED: USER    NEWDPF quaternion0 -0.916439 -0.231589 -0.317605 0.075054
DOCKED: USER    NEWDPF axisangle0 -0.919031 -0.232244 -0.318504 171.391303
DOCKED: USER    NEWDPF quat0 -0.919031 -0.232244 -0.318504 171.391303
DOCKED: USER    NEWDPF dihe0 -8.89 -74.40 36.39 -159.75 
DOCKED: USER  keepresnum = 1 
DOCKED: USER  
DOCKED: REMARK SMILES O=C(O)CC(=O)O
DOCKED: REMARK SMILES IDX 4 1 2 2 1 3 3 4 5 6 6 7 7 8
DOCKED: REMARK H PARENT 3 5 7 9
DOCKED: USER                              x       y       z     vdW  Elec       q    Type
DOCKED: USER                           _______ _______ _______ _____ _____    ______ ____
DOCKED: ROOT
DOCKED: ATOM      1  C   UNL     1       7.273  27.671   7.244 -0.30 -0.10    +0.244 C 
DOCKED: ENDROOT
DOCKED: BRANCH   1   2
DOCKED: ATOM      2  C   UNL     1       5.828  27.614   7.656 -0.23 -0.10    +0.314 C 
DOCKED: ATOM      3  O   UNL     1       5.154  26.611   7.451 -0.76 -0.01    -0.252 OA
DOCKED: BRANCH   2   4
DOCKED: ATOM      4  O   UNL     1       5.300  28.696   8.257 -0.09 +0.30    -0.481 OA
DOCKED: ATOM      5  H   UNL     1       5.946  29.403   8.505 -0.40 -0.54    +0.296 HD
DOCKED: ENDBRANCH   2   4
DOCKED: ENDBRANCH   1   2
DOCKED: BRANCH   1   6
DOCKED: ATOM      6  C   UNL     1       8.204  28.406   8.148 -0.34 -0.17    +0.314 C 
DOCKED: ATOM      7  O   UNL     1       9.293  28.842   7.798 -1.01 +0.06    -0.252 OA
DOCKED: BRANCH   6   8
DOCKED: ATOM      8  O   UNL     1       7.738  28.552   9.407 -0.20 +0.33    -0.481 OA
DOCKED: ATOM      9  H   UNL     1       7.030  29.218   9.514 -0.39 -0.47    +0.296 HD
DOCKED: ENDBRANCH   6   8
DOCKED: ENDBRANCH   1   6
DOCKED: TORSDOF 4
DOCKED: TER
DOCKED: ENDMDL
________________________________________________________________________________

DPF> analysis


		CLUSTER ANALYSIS OF CONFORMATIONS
		_________________________________

Number of conformations = 10

RMSD cluster analysis will be performed using the ligand atoms only (9 / 9 total atoms).

Outputting structurally similar clusters, ranked in order of increasing energy.


________________________________________________________________________________

Number of distinct conformational clusters found = 3,  out of 10 runs,
Using an rmsd-tolerance of 2.0 A


	CLUSTERING HISTOGRAM
	____________________

________________________________________________________________________________
     |           |     |           |     |                                    
Clus | Lowest    | Run | Mean      | Num | Histogram                          
-ter | Binding   |     | Binding   | in  |                                    
Rank | Energy    |     | Energy    | Clus|    5    10   15   20   25   30   35
_____|___________|_____|___________|_____|____:____|____:____|____:____|____:___
   1 |     -3.23 |  10 |     -3.07 |   8 |########
   2 |     -3.08 |   4 |     -3.08 |   1 |#
   3 |     -3.03 |   7 |     -3.03 |   1 |#
_____|___________|_____|___________|_____|______________________________________


Number of multi-member conformational clusters found = 1, out of 10 runs.

	RMSD TABLE
	__________

_____________________________________________________________________
     |      |      |           |         |                 |
Rank | Sub- | Run  | Binding   | Cluster | Reference       | Grep
     | Rank |      | Energy    | RMSD    | RMSD            | Pattern
_____|______|______|___________|_________|_________________|___________
   1      1     10       -3.23      0.00     28.62           RANKING
   1      2      6       -3.13      1.09     28.53           RANKING
   1      3      1       -3.12      0.97     28.28           RANKING
   1      4      3       -3.08      0.93     28.32           RANKING
   1      5      2       -3.06      0.93     28.37           RANKING
   1      6      8       -3.06      0.47     28.57           RANKING
   1      7      9       -3.01      1.22     28.37           RANKING
   1      8      5       -2.84      0.98     28.50           RANKING
   2      1      4       -3.08      0.00     22.14           RANKING
   3      1      7       -3.03      0.00     21.18           RANKING
_______________________________________________________________________



	INFORMATION ENTROPY ANALYSIS FOR THIS CLUSTERING
	________________________________________________


Information entropy for this clustering = 0.28  (rmstol = 2.00 Angstrom)

_______________________________________________________________________


	STATISTICAL MECHANICAL ANALYSIS
	_______________________________


Partition function, Q =    10.05            at Temperature, T = 298.15 K
Free energy,        A ~ -1367.30 kcal/mol   at Temperature, T = 298.15 K
Internal energy,    U =    -3.06 kcal/mol   at Temperature, T = 298.15 K
Entropy,            S =     4.58 kcal/mol/K at Temperature, T = 298.15 K

_______________________________________________________________________


	LOWEST ENERGY DOCKED CONFORMATION from EACH CLUSTER
	___________________________________________________



Keeping original residue number (specified in the input PDBQ file) for outputting.

MODEL       10
USER    Run = 10
USER    Cluster Rank = 1
USER    Number of conformations in this cluster = 8
USER  
USER    RMSD from reference structure       = 28.620 A
USER  
USER    Estimated Free Energy of Binding    =   -3.23 kcal/mol  [=(1)+(2)+(3)-(4)]
USER    Estimated Inhibition Constant, Ki   =    4.32 mM (millimolar)  [Temperature = 298.15 K]
USER    
USER    (1) Final Intermolecular Energy     =   -4.42 kcal/mol
USER        vdW + Hbond + desolv Energy     =   -3.73 kcal/mol
USER        Electrostatic Energy            =   -0.69 kcal/mol
USER    (2) Final Total Internal Energy     =   -0.74 kcal/mol
USER    (3) Torsional Free Energy           =   +1.19 kcal/mol
USER    (4) Unbound System's Energy  [=(2)] =   -0.74 kcal/mol
USER    
USER    
USER  
USER    DPF = malonic_acid.dpf
USER    NEWDPF move	malonic_acid.pdbqt
USER    NEWDPF about	3.914778 0.102667 0.443889
USER    NEWDPF tran0	7.219153 28.104131 7.987233
USER    NEWDPF axisangle0	-0.919031 -0.232244 -0.318504 171.391303
USER    NEWDPF quaternion0	-0.916439 -0.231589 -0.317605 0.075054
USER    NEWDPF dihe0	-8.89 -74.40 36.39 -159.75 
USER  
USER                              x       y       z    vdW   Elec        q     RMS 
ATOM      1  C   UNL     1       7.273  27.671   7.244 -0.30 -0.10    +0.244    28.620
ATOM      2  C   UNL     1       5.828  27.614   7.656 -0.23 -0.10    +0.314    28.620
ATOM      3  O   UNL     1       5.154  26.611   7.451 -0.76 -0.01    -0.252    28.620
ATOM      4  O   UNL     1       5.300  28.696   8.257 -0.09 +0.30    -0.481    28.620
ATOM      5  H   UNL     1       5.946  29.403   8.505 -0.40 -0.54    +0.296    28.620
ATOM      6  C   UNL     1       8.204  28.406   8.148 -0.34 -0.17    +0.314    28.620
ATOM      7  O   UNL     1       9.293  28.842   7.798 -1.01 +0.06    -0.252    28.620
ATOM      8  O   UNL     1       7.738  28.552   9.407 -0.20 +0.33    -0.481    28.620
ATOM      9  H   UNL     1       7.030  29.218   9.514 -0.39 -0.47    +0.296    28.620
TER
ENDMDL
MODEL        4
USER    Run = 4
USER    Cluster Rank = 2
USER    Number of conformations in this cluster = 1
USER  
USER    RMSD from reference structure       = 22.138 A
USER  
USER    Estimated Free Energy of Binding    =   -3.08 kcal/mol  [=(1)+(2)+(3)-(4)]
USER    Estimated Inhibition Constant, Ki   =    5.52 mM (millimolar)  [Temperature = 298.15 K]
USER    
USER    (1) Final Intermolecular Energy     =   -4.27 kcal/mol
USER        vdW + Hbond + desolv Energy     =   -3.78 kcal/mol
USER        Electrostatic Energy            =   -0.50 kcal/mol
USER    (2) Final Total Internal Energy     =   -0.71 kcal/mol
USER    (3) Torsional Free Energy           =   +1.19 kcal/mol
USER    (4) Unbound System's Energy  [=(2)] =   -0.71 kcal/mol
USER    
USER    
USER  
USER    DPF = malonic_acid.dpf
USER    NEWDPF move	malonic_acid.pdbqt
USER    NEWDPF about	3.914778 0.102667 0.443889
USER    NEWDPF tran0	18.744879 16.926084 5.125001
USER    NEWDPF axisangle0	0.729023 -0.651839 0.208881 -112.739575
USER    NEWDPF quaternion0	0.607006 -0.542740 0.173920 -0.553831
USER    NEWDPF dihe0	67.23 -36.60 -31.55 173.89 
USER  
USER                              x       y       z    vdW   Elec        q     RMS 
ATOM      1  C   UNL     1      18.142  16.704   4.550 -0.31 -0.06    +0.244    22.138
ATOM      2  C   UNL     1      18.657  18.047   4.115 -0.28 -0.12    +0.314    22.138
ATOM      3  O   UNL     1      18.693  18.353   2.928 -0.93 +0.07    -0.252    22.138
ATOM      4  O   UNL     1      19.075  18.902   5.067 -0.70 +0.24    -0.481    22.138
ATOM      5  H   UNL     1      19.892  18.630   5.554 -0.08 -0.38    +0.296    22.138
ATOM      6  C   UNL     1      18.747  16.115   5.780 -0.22 -0.05    +0.314    22.138
ATOM      7  O   UNL     1      18.352  15.084   6.309 -0.79 -0.05    -0.252    22.138
ATOM      8  O   UNL     1      19.784  16.828   6.271 -0.08 +0.19    -0.481    22.138
ATOM      9  H   UNL     1      20.363  17.238   5.598 -0.40 -0.33    +0.296    22.138
TER
ENDMDL
MODEL        7
USER    Run = 7
USER    Cluster Rank = 3
USER    Number of conformations in this cluster = 1
USER  
USER    RMSD from reference structure       = 21.182 A
USER  
USER    Estimated Free Energy of Binding    =   -3.03 kcal/mol  [=(1)+(2)+(3)-(4)]
USER    Estimated Inhibition Constant, Ki   =    6.03 mM (millimolar)  [Temperature = 298.15 K]
USER    
USER    (1) Final Intermolecular Energy     =   -4.22 kcal/mol
USER        vdW + Hbond + desolv Energy     =   -3.57 kcal/mol
USER        Electrostatic Energy            =   -0.65 kcal/mol
USER    (2) Final Total Internal Energy     =   -0.75 kcal/mol
USER    (3) Torsional Free Energy           =   +1.19 kcal/mol
USER    (4) Unbound System's Energy  [=(2)] =   -0.75 kcal/mol
USER    
USER    
USER  
USER    DPF = malonic_acid.dpf
USER    NEWDPF move	malonic_acid.pdbqt
USER    NEWDPF about	3.914778 0.102667 0.443889
USER    NEWDPF tran0	18.400878 16.716497 4.072439
USER    NEWDPF axisangle0	-0.015198 -0.359520 -0.933013 -77.037341
USER    NEWDPF quaternion0	-0.009465 -0.223898 -0.581052 -0.782405
USER    NEWDPF dihe0	-60.56 -15.71 12.14 -135.53 
USER  
USER                              x       y       z    vdW   Elec        q     RMS 
ATOM      1  C   UNL     1      18.237  17.467   4.464 -0.32 -0.08    +0.244    21.182
ATOM      2  C   UNL     1      18.126  17.734   2.989 -0.35 -0.11    +0.314    21.182
ATOM      3  O   UNL     1      18.070  18.881   2.559 -1.03 +0.04    -0.252    21.182
ATOM      4  O   UNL     1      18.092  16.676   2.157 -0.22 +0.27    -0.481    21.182
ATOM      5  H   UNL     1      18.886  16.088   2.184 -0.36 -0.47    +0.296    21.182
ATOM      6  C   UNL     1      18.578  16.074   4.874 -0.23 -0.07    +0.314    21.182
ATOM      7  O   UNL     1      18.018  15.473   5.781 -0.60 -0.03    -0.252    21.182
ATOM      8  O   UNL     1      19.576  15.523   4.149 -0.12 +0.24    -0.481    21.182
ATOM      9  H   UNL     1      19.786  15.982   3.313 -0.33 -0.45    +0.296    21.182
TER
ENDMDL


AVSFLD: # AVS field file
AVSFLD: #
AVSFLD: # Created by AutoDock
AVSFLD: #
AVSFLD: ndim=2           # number of dimensions in the field
AVSFLD: nspace=1         # number of physical coordinates
AVSFLD: veclen=7         # vector size
AVSFLD: dim1=9           # atoms
AVSFLD: dim2=3           # conformations
AVSFLD: data=Real       # data type (byte,integer,Real,double)
AVSFLD: field=uniform    # field coordinate layout
AVSFLD: label= x y z vdW Elec q RMS
AVSFLD: variable 1 file = malonic_acid.dlg.pdb filetype = ascii offset = 5 stride = 12
AVSFLD: variable 2 file = malonic_acid.dlg.pdb filetype = ascii offset = 6 stride = 12
AVSFLD: variable 3 file = malonic_acid.dlg.pdb filetype = ascii offset = 7 stride = 12
AVSFLD: variable 4 file = malonic_acid.dlg.pdb filetype = ascii offset = 8 stride = 12
AVSFLD: variable 5 file = malonic_acid.dlg.pdb filetype = ascii offset = 9 stride = 12
AVSFLD: variable 6 file = malonic_acid.dlg.pdb filetype = ascii offset = 10 stride = 12
AVSFLD: variable 7 file = malonic_acid.dlg.pdb filetype = ascii offset = 11 stride = 12
AVSFLD: # end of file

>>> Closing the docking parameter file (DPF)...
This docking finished at:			0:20 53" a.m., 09/14/2026


________________________________________________________________________________

autodock4: Successful Completion on "VP"

Real= 57.19s,  CPU= 57.13s,  System= 0.04s
________________________________________________________________________________

