          AutoDock 4.2 Release 4.2.6   
         (C) 1989-2012 The Scripps Research Institute
        AutoDock comes with ABSOLUTELY NO WARRANTY.
        AutoDock is free software, and you are welcome
        to redistribute it under certain conditions;
        for details type 'autodock4 -C'

                     main.cc  $Revision: 1.213 $

                   Compiled on Dec 11 2024 at 15:52:35


This file was created at:			0:20 02" a.m., 09/14/2026
                   on host:		"VP"
Current Working Directory = "/home/vishishtaapandit28/docking-pipeline-project/results/1HSG/ad4_grids"

      ________________________________________________________________

                   SETTING UP DEFAULT PARAMETER LIBRARY
      ________________________________________________________________


Random number generator was seeded with values 96108, 1789325402.
Docking parameter file (DPF) used for this docking:		oxalic_acid.dpf
DPF> autodock_parameter_version 4.2

	Autodock parameter version 4.2.
DPF> outlev 1

Output Level = 1  ADT-COMPATIBLE OUTPUT DURING DOCKING.
DPF> intelec

Electrostatic energies will be calculated for all non-bonds between moving atoms.
DPF> seed pid time

Random number generator was seeded with values 96108, 1789325402.
DPF> ligand_types C HD OA

DPF> fld receptor.maps.fld

Opening Grid Map Dimensions file:		receptor.maps.fld
Grid Point Spacing =				0.375 Angstroms

Even Number of User-specified Grid Points =	62 x-points
						48 y-points
						46 z-points

Coordinates of Central Grid Point of Maps =	(13.073, 22.467, 5.557)
Macromolecule file used to create Grid Maps =	receptor.pdbqt
Grid Parameter file used to create Grid Maps =	receptor.gpf
Minimum coordinates in grid = (1.448, 13.467, -3.068)
Maximum coordinates in grid = (24.698, 31.467, 14.182)

DPF> map receptor.C.map

DPF> map receptor.HD.map

DPF> map receptor.OA.map

DPF> elecmap receptor.e.map

DPF> desolvmap receptor.d.map

DPF> move oxalic_acid.pdbqt

1,4-interactions will be _ignored_ in the non-bonded internal energy calculation.

Ligand PDBQT file = "oxalic_acid.pdbqt"

INPUT LIGAND PDBQT FILE:
________________________

INPUT-LIGAND-PDBQT: REMARK SMILES O=C(O)C(=O)O
INPUT-LIGAND-PDBQT: REMARK SMILES IDX 2 1 1 2 3 3 4 5 5 6 6 7
INPUT-LIGAND-PDBQT: REMARK H PARENT 3 4 6 8
INPUT-LIGAND-PDBQT: ROOT
INPUT-LIGAND-PDBQT: ATOM      1  C   UNL     1       2.500   0.066  -0.106  1.00  0.00    +0.414 C 
INPUT-LIGAND-PDBQT: ATOM      2  O   UNL     1       3.194   1.023  -0.398  1.00  0.00    -0.238 OA
INPUT-LIGAND-PDBQT: ENDROOT
INPUT-LIGAND-PDBQT: BRANCH   1   3
INPUT-LIGAND-PDBQT: ATOM      3  O   UNL     1       1.160   0.011  -0.090  1.00  0.00    -0.473 OA
INPUT-LIGAND-PDBQT: ATOM      4  H   UNL     1       0.868  -0.890   0.186  1.00  0.00    +0.297 HD
INPUT-LIGAND-PDBQT: ENDBRANCH   1   3
INPUT-LIGAND-PDBQT: BRANCH   1   5
INPUT-LIGAND-PDBQT: ATOM      5  C   UNL     1       3.140  -1.270   0.303  1.00  0.00    +0.414 C 
INPUT-LIGAND-PDBQT: ATOM      6  O   UNL     1       2.446  -2.228   0.596  1.00  0.00    -0.238 OA
INPUT-LIGAND-PDBQT: BRANCH   5   7
INPUT-LIGAND-PDBQT: ATOM      7  O   UNL     1       4.480  -1.215   0.288  1.00  0.00    -0.473 OA
INPUT-LIGAND-PDBQT: ATOM      8  H   UNL     1       4.772  -0.314   0.012  1.00  0.00    +0.297 HD
INPUT-LIGAND-PDBQT: ENDBRANCH   5   7
INPUT-LIGAND-PDBQT: ENDBRANCH   1   5
INPUT-LIGAND-PDBQT: TORSDOF 3
________________________________________________________________________________

Total charge on ligand                               =	+0.000 e
REMARK SMILES O=C(O)C(=O)O
REMARK SMILES IDX 2 1 1 2 3 3 4 5 5 6 6 7
REMARK H PARENT 3 4 6 8


Number of Rotatable Bonds in Small Molecule =	3 torsions
Number of atoms in ligand:  8

Number of non-hydrogen atoms in ligand:  6

Number of vibrational degrees of freedom of ligand:  18


Number of torsional degrees of freedom = 3
Estimated loss of torsional free energy upon binding = +0.8949 kcal/mol


DPF> about 2.8200000000000003 -0.602125 0.09887499999999999

Small molecule center of rotation =	(+2.820, -0.602, +0.099)

DPF> tran0 random

Initial translation =			(11.122, 27.379, 7.742) Angstroms
DPF> quat0 random

Each run will begin with a new, random initial orientation.
Initial quaternion,  (x,y,z,w) =	( 0.613, 0.457, -0.293, -0.575 ),
DPF> dihe0 random

DPF> tstep 2.0

Initial simanneal cycle, maximum translation step = +/- 2.0 Angstroms
DPF> qstep 50.0

Initial simanneal cycle, maximum quaternion angle step = +/- 50.0 deg
DPF> dstep 50.0

Initial simanneal cycle, maximum torsion angle step = +/- 50.0 deg
DPF> torsdof 3

Number of torsional degrees of freedom = 3
Free energy coefficient for torsional degrees of freedom = 0.2983, the factory default value.

Estimated loss of torsional free energy upon binding = +0.8949 kcal/mol

DPF> rmstol 2.0

Maximum RMS tolerance for conformational cluster analysis = 2.00 Angstroms
DPF> extnrg 1000.0

External grid energy (beyond grid map walls) = 1000.00

DPF> e0max 0.0 10000

Using user-specified maximum number of retries for simanneal initialization, 10000 retries.
If the simanneal initial energy is greater than e0max, 0.000,
then a new, random initial state will be created.

DPF> ga_pop_size 150

A population of 150 individuals will be used
DPF> ga_num_evals 2500000

There will be at most 2500000 function evaluations used.
DPF> ga_num_generations 27000

The GA will run for at most 27000 generations.
DPF> ga_elitism 1

The 1 best will be preserved each GA generation.
DPF> ga_mutation_rate 0.02

The mutation rate is 0.020000.
DPF> ga_crossover_rate 0.8

The crossover rate is 0.800000.
DPF> ga_window_size 10

The GA's selection window is 10 generations.
DPF> ga_cauchy_alpha 0.0

The alpha parameter (for the Cauchy distribution) is being set to 0.000000.
DPF> ga_cauchy_beta 1.0

The beta parameter (for the Cauchy distribution) is being set to 1.000000.
DPF> set_ga

DPF> sw_max_its 300

Solis & Wets algorithms will perform at most 300 iterations.
DPF> sw_max_succ 4

Solis & Wets algorithms expand rho every 4 in a row successes.
DPF> sw_max_fail 4

Solis & Wets algorithms contract rho every 4 in a row failures.
DPF> sw_rho 1.0

rho is set to 1.000000.
DPF> sw_lb_rho 0.01

rho will never get smaller than 0.010000.
DPF> ls_search_freq 0.06

Local search will be performed with frequency 0.060000.
DPF> set_psw1

Creating a new Local Search object using the pseudo-Solis-Wets algorithm (pSW1) with the current settings.

DPF> unbound_model bound

DPF> ga_run 10

centering ligand on specified point: 2.820 -0.602 0.099
Furthest true ligand atom from "about" center is 1.975 Angstroms (maxrad).
Number of requested GA dockings = 10 runs
Unbound model to be used is 'same as bound' [AutoDock 4.2 default].

	BEGINNING GENETIC ALGORITHM DOCKING 1 of 10
Run: 1 Seed: 793737078 552126113 [ Run 1 of 10 GA/GALS ]
Beginning LAMARCKIAN GENETIC ALGORITHM (LGA), with a maximum of 2500000 energy evaluations.

Final-Value: -5.297


	FINAL GENETIC ALGORITHM DOCKED STATE
	_______________________________________________


Detailed state:  trans 18.361 17.767 3.103 quatxyzw 0.506176 0.770397 0.230164 -0.311929 center 2.820 -0.602 0.099 ntor 3 41.8675 -35.3387 179.2598
State:	 18.361  17.767   3.103   0.533  0.811  0.242 -143.649     41.87  -35.34  179.26

DOCKED: MODEL        1
DOCKED: USER    Run = 1
DOCKED: USER    DPF = oxalic_acid.dpf
DOCKED: USER  
DOCKED: USER    Estimated Free Energy of Binding    =   -2.89 kcal/mol  [=(1)+(2)+(3)-(4)]
DOCKED: USER    Estimated Inhibition Constant, Ki   =    7.55 mM (millimolar)  [Temperature = 298.15 K]
DOCKED: USER    
DOCKED: USER    (1) Final Intermolecular Energy     =   -3.79 kcal/mol
DOCKED: USER        vdW + Hbond + desolv Energy     =   -3.34 kcal/mol
DOCKED: USER        Electrostatic Energy            =   -0.45 kcal/mol
DOCKED: USER    (2) Final Total Internal Energy     =   -1.51 kcal/mol
DOCKED: USER    (3) Torsional Free Energy           =   +0.89 kcal/mol
DOCKED: USER    (4) Unbound System's Energy  [=(2)] =   -1.51 kcal/mol
DOCKED: USER    
DOCKED: USER    
DOCKED: USER    NEWDPF move oxalic_acid.pdbqt
DOCKED: USER    NEWDPF about 2.820000 -0.602125 0.098875
DOCKED: USER    NEWDPF tran0 18.361104 17.766624 3.103015
DOCKED: USER    NEWDPF quaternion0 0.506176 0.770397 0.230164 -0.311929
DOCKED: USER    NEWDPF axisangle0 0.532757 0.810854 0.242251 -143.648929
DOCKED: USER    NEWDPF quat0 0.532757 0.810854 0.242251 -143.648929
DOCKED: USER    NEWDPF dihe0 41.87 -35.34 179.26 
DOCKED: USER  keepresnum = 1 
DOCKED: USER  
DOCKED: REMARK SMILES O=C(O)C(=O)O
DOCKED: REMARK SMILES IDX 2 1 1 2 3 3 4 5 5 6 6 7
DOCKED: REMARK H PARENT 3 4 6 8
DOCKED: USER                              x       y       z     vdW  Elec       q    Type
DOCKED: USER                           _______ _______ _______ _____ _____    ______ ____
DOCKED: ROOT
DOCKED: ATOM      1  C   UNL     1      18.734  17.718   3.773 -0.24 -0.18    +0.414 C 
DOCKED: ATOM      2  O   UNL     1      18.931  18.713   4.447 -0.79 +0.09    -0.238 OA
DOCKED: ENDROOT
DOCKED: BRANCH   1   3
DOCKED: ATOM      3  O   UNL     1      19.103  16.460   4.057 -0.18 +0.27    -0.473 OA
DOCKED: ATOM      4  H   UNL     1      19.448  16.024   3.243 -0.36 -0.39    +0.297 HD
DOCKED: ENDBRANCH   1   3
DOCKED: BRANCH   1   5
DOCKED: ATOM      5  C   UNL     1      17.988  17.815   2.433 -0.24 -0.13    +0.414 C 
DOCKED: ATOM      6  O   UNL     1      17.570  18.887   2.030 -0.90 +0.05    -0.238 OA
DOCKED: BRANCH   5   7
DOCKED: ATOM      7  O   UNL     1      17.879  16.624   1.827 -0.27 +0.22    -0.473 OA
DOCKED: ATOM      8  H   UNL     1      18.691  16.089   1.997 -0.38 -0.37    +0.297 HD
DOCKED: ENDBRANCH   5   7
DOCKED: ENDBRANCH   1   5
DOCKED: TORSDOF 3
DOCKED: TER
DOCKED: ENDMDL
________________________________________________________________________________


	BEGINNING GENETIC ALGORITHM DOCKING 2 of 10
Run: 2 Seed: 893566860 1659789968 [ Run 2 of 10 GA/GALS ]
Beginning LAMARCKIAN GENETIC ALGORITHM (LGA), with a maximum of 2500000 energy evaluations.

Final-Value: -5.372


	FINAL GENETIC ALGORITHM DOCKED STATE
	_______________________________________________


Detailed state:  trans 18.287 17.769 2.956 quatxyzw 0.121025 0.406066 -0.532917 0.732436 center 2.820 -0.602 0.099 ntor 3 -43.0192 36.3661 -173.1820
State:	 18.287  17.769   2.956   0.178  0.596 -0.783 85.818    -43.02   36.37 -173.18

DOCKED: MODEL        2
DOCKED: USER    Run = 2
DOCKED: USER    DPF = oxalic_acid.dpf
DOCKED: USER  
DOCKED: USER    Estimated Free Energy of Binding    =   -2.96 kcal/mol  [=(1)+(2)+(3)-(4)]
DOCKED: USER    Estimated Inhibition Constant, Ki   =    6.71 mM (millimolar)  [Temperature = 298.15 K]
DOCKED: USER    
DOCKED: USER    (1) Final Intermolecular Energy     =   -3.86 kcal/mol
DOCKED: USER        vdW + Hbond + desolv Energy     =   -3.36 kcal/mol
DOCKED: USER        Electrostatic Energy            =   -0.50 kcal/mol
DOCKED: USER    (2) Final Total Internal Energy     =   -1.51 kcal/mol
DOCKED: USER    (3) Torsional Free Energy           =   +0.89 kcal/mol
DOCKED: USER    (4) Unbound System's Energy  [=(2)] =   -1.51 kcal/mol
DOCKED: USER    
DOCKED: USER    
DOCKED: USER    NEWDPF move oxalic_acid.pdbqt
DOCKED: USER    NEWDPF about 2.820000 -0.602125 0.098875
DOCKED: USER    NEWDPF tran0 18.287111 17.769125 2.956080
DOCKED: USER    NEWDPF quaternion0 0.121025 0.406066 -0.532917 0.732436
DOCKED: USER    NEWDPF axisangle0 0.177759 0.596423 -0.782739 85.817933
DOCKED: USER    NEWDPF quat0 0.177759 0.596423 -0.782739 85.817933
DOCKED: USER    NEWDPF dihe0 -43.02 36.37 -173.18 
DOCKED: USER  keepresnum = 1 
DOCKED: USER  
DOCKED: REMARK SMILES O=C(O)C(=O)O
DOCKED: REMARK SMILES IDX 2 1 1 2 3 3 4 5 5 6 6 7
DOCKED: REMARK H PARENT 3 4 6 8
DOCKED: USER                              x       y       z     vdW  Elec       q    Type
DOCKED: USER                           _______ _______ _______ _____ _____    ______ ____
DOCKED: ROOT
DOCKED: ATOM      1  C   UNL     1      17.947  17.809   2.268 -0.25 -0.13    +0.414 C 
DOCKED: ATOM      2  O   UNL     1      17.576  18.879   1.820 -0.93 +0.06    -0.238 OA
DOCKED: ENDROOT
DOCKED: BRANCH   1   3
DOCKED: ATOM      3  O   UNL     1      17.836  16.605   1.688 -0.26 +0.21    -0.473 OA
DOCKED: ATOM      4  H   UNL     1      18.675  16.101   1.806 -0.37 -0.38    +0.297 HD
DOCKED: ENDBRANCH   1   3
DOCKED: BRANCH   1   5
DOCKED: ATOM      5  C   UNL     1      18.628  17.729   3.643 -0.25 -0.17    +0.414 C 
DOCKED: ATOM      6  O   UNL     1      18.698  18.712   4.361 -0.78 +0.08    -0.238 OA
DOCKED: BRANCH   5   7
DOCKED: ATOM      7  O   UNL     1      19.097  16.500   3.905 -0.17 +0.29    -0.473 OA
DOCKED: ATOM      8  H   UNL     1      19.442  16.093   3.076 -0.36 -0.46    +0.297 HD
DOCKED: ENDBRANCH   5   7
DOCKED: ENDBRANCH   1   5
DOCKED: TORSDOF 3
DOCKED: TER
DOCKED: ENDMDL
________________________________________________________________________________


	BEGINNING GENETIC ALGORITHM DOCKING 3 of 10
Run: 3 Seed: 1345779731 317968459 [ Run 3 of 10 GA/GALS ]
Beginning LAMARCKIAN GENETIC ALGORITHM (LGA), with a maximum of 2500000 energy evaluations.

Final-Value: -5.408


	FINAL GENETIC ALGORITHM DOCKED STATE
	_______________________________________________


Detailed state:  trans 8.397 28.511 7.679 quatxyzw -0.656203 -0.239278 0.452669 0.554288 center 2.820 -0.602 0.099 ntor 3 -41.4122 41.6550 180.0000
State:	  8.397  28.511   7.679  -0.788 -0.287  0.544 112.677    -41.41   41.66  180.00

DOCKED: MODEL        3
DOCKED: USER    Run = 3
DOCKED: USER    DPF = oxalic_acid.dpf
DOCKED: USER  
DOCKED: USER    Estimated Free Energy of Binding    =   -3.00 kcal/mol  [=(1)+(2)+(3)-(4)]
DOCKED: USER    Estimated Inhibition Constant, Ki   =    6.28 mM (millimolar)  [Temperature = 298.15 K]
DOCKED: USER    
DOCKED: USER    (1) Final Intermolecular Energy     =   -3.90 kcal/mol
DOCKED: USER        vdW + Hbond + desolv Energy     =   -3.31 kcal/mol
DOCKED: USER        Electrostatic Energy            =   -0.59 kcal/mol
DOCKED: USER    (2) Final Total Internal Energy     =   -1.51 kcal/mol
DOCKED: USER    (3) Torsional Free Energy           =   +0.89 kcal/mol
DOCKED: USER    (4) Unbound System's Energy  [=(2)] =   -1.51 kcal/mol
DOCKED: USER    
DOCKED: USER    
DOCKED: USER    NEWDPF move oxalic_acid.pdbqt
DOCKED: USER    NEWDPF about 2.820000 -0.602125 0.098875
DOCKED: USER    NEWDPF tran0 8.396964 28.511223 7.679106
DOCKED: USER    NEWDPF quaternion0 -0.656203 -0.239278 0.452669 0.554288
DOCKED: USER    NEWDPF axisangle0 -0.788397 -0.287481 0.543861 112.676571
DOCKED: USER    NEWDPF quat0 -0.788397 -0.287481 0.543861 112.676571
DOCKED: USER    NEWDPF dihe0 -41.41 41.66 180.00 
DOCKED: USER  keepresnum = 1 
DOCKED: USER  
DOCKED: REMARK SMILES O=C(O)C(=O)O
DOCKED: REMARK SMILES IDX 2 1 1 2 3 3 4 5 5 6 6 7
DOCKED: REMARK H PARENT 3 4 6 8
DOCKED: USER                              x       y       z     vdW  Elec       q    Type
DOCKED: USER                           _______ _______ _______ _____ _____    ______ ____
DOCKED: ROOT
DOCKED: ATOM      1  C   UNL     1       8.857  28.584   8.290 -0.21 -0.17    +0.414 C 
DOCKED: ATOM      2  O   UNL     1      10.064  28.470   8.176 -0.96 +0.06    -0.238 OA
DOCKED: ENDROOT
DOCKED: BRANCH   1   3
DOCKED: ATOM      3  O   UNL     1       8.170  28.835   9.414 -0.23 +0.33    -0.473 OA
DOCKED: ATOM      4  H   UNL     1       7.450  29.483   9.225 -0.36 -0.56    +0.297 HD
DOCKED: ENDBRANCH   1   3
DOCKED: BRANCH   1   5
DOCKED: ATOM      5  C   UNL     1       7.937  28.439   7.068 -0.22 -0.21    +0.414 C 
DOCKED: ATOM      6  O   UNL     1       8.401  28.209   5.965 -0.82 +0.09    -0.238 OA
DOCKED: BRANCH   5   7
DOCKED: ATOM      7  O   UNL     1       6.644  28.597   7.386 -0.15 +0.35    -0.473 OA
DOCKED: ATOM      8  H   UNL     1       6.547  29.345   8.022 -0.35 -0.48    +0.297 HD
DOCKED: ENDBRANCH   5   7
DOCKED: ENDBRANCH   1   5
DOCKED: TORSDOF 3
DOCKED: TER
DOCKED: ENDMDL
________________________________________________________________________________


	BEGINNING GENETIC ALGORITHM DOCKING 4 of 10
Run: 4 Seed: 893646474 1234696167 [ Run 4 of 10 GA/GALS ]
Beginning LAMARCKIAN GENETIC ALGORITHM (LGA), with a maximum of 2500000 energy evaluations.

Final-Value: -5.443


	FINAL GENETIC ALGORITHM DOCKED STATE
	_______________________________________________


Detailed state:  trans 8.413 28.475 7.664 quatxyzw 0.659397 -0.144349 0.066887 0.734769 center 2.820 -0.602 0.099 ntor 3 25.6874 -46.0743 -162.5193
State:	  8.413  28.475   7.664   0.972 -0.213  0.099 85.425     25.69  -46.07 -162.52

DOCKED: MODEL        4
DOCKED: USER    Run = 4
DOCKED: USER    DPF = oxalic_acid.dpf
DOCKED: USER  
DOCKED: USER    Estimated Free Energy of Binding    =   -3.04 kcal/mol  [=(1)+(2)+(3)-(4)]
DOCKED: USER    Estimated Inhibition Constant, Ki   =    5.94 mM (millimolar)  [Temperature = 298.15 K]
DOCKED: USER    
DOCKED: USER    (1) Final Intermolecular Energy     =   -3.93 kcal/mol
DOCKED: USER        vdW + Hbond + desolv Energy     =   -3.42 kcal/mol
DOCKED: USER        Electrostatic Energy            =   -0.52 kcal/mol
DOCKED: USER    (2) Final Total Internal Energy     =   -1.51 kcal/mol
DOCKED: USER    (3) Torsional Free Energy           =   +0.89 kcal/mol
DOCKED: USER    (4) Unbound System's Energy  [=(2)] =   -1.51 kcal/mol
DOCKED: USER    
DOCKED: USER    
DOCKED: USER    NEWDPF move oxalic_acid.pdbqt
DOCKED: USER    NEWDPF about 2.820000 -0.602125 0.098875
DOCKED: USER    NEWDPF tran0 8.413495 28.475260 7.663844
DOCKED: USER    NEWDPF quaternion0 0.659397 -0.144349 0.066887 0.734769
DOCKED: USER    NEWDPF axisangle0 0.972106 -0.212804 0.098607 85.424671
DOCKED: USER    NEWDPF quat0 0.972106 -0.212804 0.098607 85.424671
DOCKED: USER    NEWDPF dihe0 25.69 -46.07 -162.52 
DOCKED: USER  keepresnum = 1 
DOCKED: USER  
DOCKED: REMARK SMILES O=C(O)C(=O)O
DOCKED: REMARK SMILES IDX 2 1 1 2 3 3 4 5 5 6 6 7
DOCKED: REMARK H PARENT 3 4 6 8
DOCKED: USER                              x       y       z     vdW  Elec       q    Type
DOCKED: USER                           _______ _______ _______ _____ _____    ______ ____
DOCKED: ROOT
DOCKED: ATOM      1  C   UNL     1       7.987  28.454   7.025 -0.22 -0.21    +0.414 C 
DOCKED: ATOM      2  O   UNL     1       8.470  28.093   5.967 -0.85 +0.09    -0.238 OA
DOCKED: ENDROOT
DOCKED: BRANCH   1   3
DOCKED: ATOM      3  O   UNL     1       6.724  28.850   7.247 -0.17 +0.40    -0.473 OA
DOCKED: ATOM      4  H   UNL     1       6.698  29.453   8.027 -0.34 -0.53    +0.297 HD
DOCKED: ENDBRANCH   1   3
DOCKED: BRANCH   1   5
DOCKED: ATOM      5  C   UNL     1       8.840  28.496   8.302 -0.26 -0.17    +0.414 C 
DOCKED: ATOM      6  O   UNL     1      10.057  28.480   8.238 -0.94 +0.06    -0.238 OA
DOCKED: BRANCH   5   7
DOCKED: ATOM      7  O   UNL     1       8.088  28.546   9.412 -0.25 +0.28    -0.473 OA
DOCKED: ATOM      8  H   UNL     1       7.376  29.219   9.300 -0.38 -0.44    +0.297 HD
DOCKED: ENDBRANCH   5   7
DOCKED: ENDBRANCH   1   5
DOCKED: TORSDOF 3
DOCKED: TER
DOCKED: ENDMDL
________________________________________________________________________________


	BEGINNING GENETIC ALGORITHM DOCKING 5 of 10
Run: 5 Seed: 1974221725 18292703 [ Run 5 of 10 GA/GALS ]
Beginning LAMARCKIAN GENETIC ALGORITHM (LGA), with a maximum of 2500000 energy evaluations.

Final-Value: -5.324


	FINAL GENETIC ALGORITHM DOCKED STATE
	_______________________________________________


Detailed state:  trans 18.363 17.724 3.055 quatxyzw -0.085782 -0.399755 0.532108 -0.741416 center 2.820 -0.602 0.099 ntor 3 -39.7233 39.3604 -178.8203
State:	 18.363  17.724   3.055  -0.128 -0.596  0.793 -84.296    -39.72   39.36 -178.82

DOCKED: MODEL        5
DOCKED: USER    Run = 5
DOCKED: USER    DPF = oxalic_acid.dpf
DOCKED: USER  
DOCKED: USER    Estimated Free Energy of Binding    =   -2.91 kcal/mol  [=(1)+(2)+(3)-(4)]
DOCKED: USER    Estimated Inhibition Constant, Ki   =    7.32 mM (millimolar)  [Temperature = 298.15 K]
DOCKED: USER    
DOCKED: USER    (1) Final Intermolecular Energy     =   -3.81 kcal/mol
DOCKED: USER        vdW + Hbond + desolv Energy     =   -3.31 kcal/mol
DOCKED: USER        Electrostatic Energy            =   -0.50 kcal/mol
DOCKED: USER    (2) Final Total Internal Energy     =   -1.52 kcal/mol
DOCKED: USER    (3) Torsional Free Energy           =   +0.89 kcal/mol
DOCKED: USER    (4) Unbound System's Energy  [=(2)] =   -1.52 kcal/mol
DOCKED: USER    
DOCKED: USER    
DOCKED: USER    NEWDPF move oxalic_acid.pdbqt
DOCKED: USER    NEWDPF about 2.820000 -0.602125 0.098875
DOCKED: USER    NEWDPF tran0 18.362576 17.724389 3.054653
DOCKED: USER    NEWDPF quaternion0 -0.085782 -0.399755 0.532108 -0.741416
DOCKED: USER    NEWDPF axisangle0 -0.127834 -0.595720 0.792954 -84.295602
DOCKED: USER    NEWDPF quat0 -0.127834 -0.595720 0.792954 -84.295602
DOCKED: USER    NEWDPF dihe0 -39.72 39.36 -178.82 
DOCKED: USER  keepresnum = 1 
DOCKED: USER  
DOCKED: REMARK SMILES O=C(O)C(=O)O
DOCKED: REMARK SMILES IDX 2 1 1 2 3 3 4 5 5 6 6 7
DOCKED: REMARK H PARENT 3 4 6 8
DOCKED: USER                              x       y       z     vdW  Elec       q    Type
DOCKED: USER                           _______ _______ _______ _____ _____    ______ ____
DOCKED: ROOT
DOCKED: ATOM      1  C   UNL     1      17.985  17.791   2.389 -0.24 -0.13    +0.414 C 
DOCKED: ATOM      2  O   UNL     1      17.574  18.874   2.013 -0.90 +0.05    -0.238 OA
DOCKED: ENDROOT
DOCKED: BRANCH   1   3
DOCKED: ATOM      3  O   UNL     1      17.861  16.614   1.758 -0.26 +0.21    -0.473 OA
DOCKED: ATOM      4  H   UNL     1      18.696  16.097   1.852 -0.38 -0.38    +0.297 HD
DOCKED: ENDBRANCH   1   3
DOCKED: BRANCH   1   5
DOCKED: ATOM      5  C   UNL     1      18.741  17.658   3.720 -0.24 -0.19    +0.414 C 
DOCKED: ATOM      6  O   UNL     1      18.923  18.631   4.431 -0.76 +0.09    -0.238 OA
DOCKED: BRANCH   5   7
DOCKED: ATOM      7  O   UNL     1      19.137  16.398   3.954 -0.16 +0.29    -0.473 OA
DOCKED: ATOM      8  H   UNL     1      19.447  15.987   3.112 -0.36 -0.44    +0.297 HD
DOCKED: ENDBRANCH   5   7
DOCKED: ENDBRANCH   1   5
DOCKED: TORSDOF 3
DOCKED: TER
DOCKED: ENDMDL
________________________________________________________________________________


	BEGINNING GENETIC ALGORITHM DOCKING 6 of 10
Run: 6 Seed: 241610965 1316556027 [ Run 6 of 10 GA/GALS ]
Beginning LAMARCKIAN GENETIC ALGORITHM (LGA), with a maximum of 2500000 energy evaluations.

Final-Value: -5.335


	FINAL GENETIC ALGORITHM DOCKED STATE
	_______________________________________________


Detailed state:  trans 8.286 28.649 7.819 quatxyzw -0.659985 0.111707 -0.151908 -0.727232 center 2.820 -0.602 0.099 ntor 3 11.0316 -41.2265 -147.3217
State:	  8.286  28.649   7.819  -0.962  0.163 -0.221 -86.690     11.03  -41.23 -147.32

DOCKED: MODEL        6
DOCKED: USER    Run = 6
DOCKED: USER    DPF = oxalic_acid.dpf
DOCKED: USER  
DOCKED: USER    Estimated Free Energy of Binding    =   -2.93 kcal/mol  [=(1)+(2)+(3)-(4)]
DOCKED: USER    Estimated Inhibition Constant, Ki   =    7.12 mM (millimolar)  [Temperature = 298.15 K]
DOCKED: USER    
DOCKED: USER    (1) Final Intermolecular Energy     =   -3.82 kcal/mol
DOCKED: USER        vdW + Hbond + desolv Energy     =   -3.31 kcal/mol
DOCKED: USER        Electrostatic Energy            =   -0.51 kcal/mol
DOCKED: USER    (2) Final Total Internal Energy     =   -1.51 kcal/mol
DOCKED: USER    (3) Torsional Free Energy           =   +0.89 kcal/mol
DOCKED: USER    (4) Unbound System's Energy  [=(2)] =   -1.51 kcal/mol
DOCKED: USER    
DOCKED: USER    
DOCKED: USER    NEWDPF move oxalic_acid.pdbqt
DOCKED: USER    NEWDPF about 2.820000 -0.602125 0.098875
DOCKED: USER    NEWDPF tran0 8.286456 28.649475 7.818593
DOCKED: USER    NEWDPF quaternion0 -0.659985 0.111707 -0.151908 -0.727232
DOCKED: USER    NEWDPF axisangle0 -0.961527 0.162745 -0.221314 -86.690386
DOCKED: USER    NEWDPF quat0 -0.961527 0.162745 -0.221314 -86.690386
DOCKED: USER    NEWDPF dihe0 11.03 -41.23 -147.32 
DOCKED: USER  keepresnum = 1 
DOCKED: USER  
DOCKED: REMARK SMILES O=C(O)C(=O)O
DOCKED: REMARK SMILES IDX 2 1 1 2 3 3 4 5 5 6 6 7
DOCKED: REMARK H PARENT 3 4 6 8
DOCKED: USER                              x       y       z     vdW  Elec       q    Type
DOCKED: USER                           _______ _______ _______ _____ _____    ______ ____
DOCKED: ROOT
DOCKED: ATOM      1  C   UNL     1       7.964  28.633   7.121 -0.19 -0.23    +0.414 C 
DOCKED: ATOM      2  O   UNL     1       8.573  28.186   6.166 -0.85 +0.08    -0.238 OA
DOCKED: ENDROOT
DOCKED: BRANCH   1   3
DOCKED: ATOM      3  O   UNL     1       6.721  29.137   7.126 -0.16 +0.46    -0.473 OA
DOCKED: ATOM      4  H   UNL     1       6.548  29.584   7.989 -0.34 -0.57    +0.297 HD
DOCKED: ENDBRANCH   1   3
DOCKED: BRANCH   1   5
DOCKED: ATOM      5  C   UNL     1       8.609  28.665   8.516 -0.22 -0.21    +0.414 C 
DOCKED: ATOM      6  O   UNL     1       9.810  28.828   8.642 -0.94 +0.06    -0.238 OA
DOCKED: BRANCH   5   7
DOCKED: ATOM      7  O   UNL     1       7.707  28.498   9.494 -0.22 +0.31    -0.473 OA
DOCKED: ATOM      8  H   UNL     1       6.891  29.012   9.285 -0.39 -0.41    +0.297 HD
DOCKED: ENDBRANCH   5   7
DOCKED: ENDBRANCH   1   5
DOCKED: TORSDOF 3
DOCKED: TER
DOCKED: ENDMDL
________________________________________________________________________________


	BEGINNING GENETIC ALGORITHM DOCKING 7 of 10
Run: 7 Seed: 1586811730 46125226 [ Run 7 of 10 GA/GALS ]
Beginning LAMARCKIAN GENETIC ALGORITHM (LGA), with a maximum of 2500000 energy evaluations.

Final-Value: -5.088


	FINAL GENETIC ALGORITHM DOCKED STATE
	_______________________________________________


Detailed state:  trans 18.653 17.080 4.345 quatxyzw -0.084857 0.711324 -0.099539 0.690586 center 2.820 -0.602 0.099 ntor 3 -24.2426 0.9715 -140.2480
State:	 18.653  17.080   4.345  -0.117  0.984 -0.138 92.647    -24.24    0.97 -140.25

DOCKED: MODEL        7
DOCKED: USER    Run = 7
DOCKED: USER    DPF = oxalic_acid.dpf
DOCKED: USER  
DOCKED: USER    Estimated Free Energy of Binding    =   -2.64 kcal/mol  [=(1)+(2)+(3)-(4)]
DOCKED: USER    Estimated Inhibition Constant, Ki   =   11.55 mM (millimolar)  [Temperature = 298.15 K]
DOCKED: USER    
DOCKED: USER    (1) Final Intermolecular Energy     =   -3.54 kcal/mol
DOCKED: USER        vdW + Hbond + desolv Energy     =   -2.96 kcal/mol
DOCKED: USER        Electrostatic Energy            =   -0.58 kcal/mol
DOCKED: USER    (2) Final Total Internal Energy     =   -1.55 kcal/mol
DOCKED: USER    (3) Torsional Free Energy           =   +0.89 kcal/mol
DOCKED: USER    (4) Unbound System's Energy  [=(2)] =   -1.55 kcal/mol
DOCKED: USER    
DOCKED: USER    
DOCKED: USER    NEWDPF move oxalic_acid.pdbqt
DOCKED: USER    NEWDPF about 2.820000 -0.602125 0.098875
DOCKED: USER    NEWDPF tran0 18.653052 17.079908 4.344726
DOCKED: USER    NEWDPF quaternion0 -0.084857 0.711324 -0.099539 0.690586
DOCKED: USER    NEWDPF axisangle0 -0.117327 0.983511 -0.137627 92.646930
DOCKED: USER    NEWDPF quat0 -0.117327 0.983511 -0.137627 92.646930
DOCKED: USER    NEWDPF dihe0 -24.24 0.97 -140.25 
DOCKED: USER  keepresnum = 1 
DOCKED: USER  
DOCKED: REMARK SMILES O=C(O)C(=O)O
DOCKED: REMARK SMILES IDX 2 1 1 2 3 3 4 5 5 6 6 7
DOCKED: REMARK H PARENT 3 4 6 8
DOCKED: USER                              x       y       z     vdW  Elec       q    Type
DOCKED: USER                           _______ _______ _______ _____ _____    ______ ____
DOCKED: ROOT
DOCKED: ATOM      1  C   UNL     1      18.689  17.773   4.014 -0.23 -0.17    +0.414 C 
DOCKED: ATOM      2  O   UNL     1      18.701  18.784   4.692 -0.81 +0.08    -0.238 OA
DOCKED: ENDROOT
DOCKED: BRANCH   1   3
DOCKED: ATOM      3  O   UNL     1      18.730  17.693   2.676 -0.57 +0.23    -0.473 OA
DOCKED: ATOM      4  H   UNL     1      19.089  16.815   2.407 -0.31 -0.38    +0.297 HD
DOCKED: ENDBRANCH   1   3
DOCKED: BRANCH   1   5
DOCKED: ATOM      5  C   UNL     1      18.618  16.387   4.675 -0.19 -0.12    +0.414 C 
DOCKED: ATOM      6  O   UNL     1      17.909  16.198   5.648 -0.39 +0.02    -0.238 OA
DOCKED: BRANCH   5   7
DOCKED: ATOM      7  O   UNL     1      19.403  15.492   4.059 -0.13 +0.23    -0.473 OA
DOCKED: ATOM      8  H   UNL     1      19.876  15.925   3.309 -0.33 -0.47    +0.297 HD
DOCKED: ENDBRANCH   5   7
DOCKED: ENDBRANCH   1   5
DOCKED: TORSDOF 3
DOCKED: TER
DOCKED: ENDMDL
________________________________________________________________________________


	BEGINNING GENETIC ALGORITHM DOCKING 8 of 10
Run: 8 Seed: 1235568846 410859343 [ Run 8 of 10 GA/GALS ]
Beginning LAMARCKIAN GENETIC ALGORITHM (LGA), with a maximum of 2500000 energy evaluations.

Final-Value: -5.426


	FINAL GENETIC ALGORITHM DOCKED STATE
	_______________________________________________


Detailed state:  trans 8.437 28.586 7.896 quatxyzw -0.686596 0.112382 -0.064989 -0.715355 center 2.820 -0.602 0.099 ntor 3 24.8161 -48.2092 -156.4401
State:	  8.437  28.586   7.896  -0.983  0.161 -0.093 -88.655     24.82  -48.21 -156.44

DOCKED: MODEL        8
DOCKED: USER    Run = 8
DOCKED: USER    DPF = oxalic_acid.dpf
DOCKED: USER  
DOCKED: USER    Estimated Free Energy of Binding    =   -3.03 kcal/mol  [=(1)+(2)+(3)-(4)]
DOCKED: USER    Estimated Inhibition Constant, Ki   =    6.00 mM (millimolar)  [Temperature = 298.15 K]
DOCKED: USER    
DOCKED: USER    (1) Final Intermolecular Energy     =   -3.93 kcal/mol
DOCKED: USER        vdW + Hbond + desolv Energy     =   -3.36 kcal/mol
DOCKED: USER        Electrostatic Energy            =   -0.57 kcal/mol
DOCKED: USER    (2) Final Total Internal Energy     =   -1.50 kcal/mol
DOCKED: USER    (3) Torsional Free Energy           =   +0.89 kcal/mol
DOCKED: USER    (4) Unbound System's Energy  [=(2)] =   -1.50 kcal/mol
DOCKED: USER    
DOCKED: USER    
DOCKED: USER    NEWDPF move oxalic_acid.pdbqt
DOCKED: USER    NEWDPF about 2.820000 -0.602125 0.098875
DOCKED: USER    NEWDPF tran0 8.437262 28.586231 7.895966
DOCKED: USER    NEWDPF quaternion0 -0.686596 0.112382 -0.064989 -0.715355
DOCKED: USER    NEWDPF axisangle0 -0.982590 0.160831 -0.093006 -88.655479
DOCKED: USER    NEWDPF quat0 -0.982590 0.160831 -0.093006 -88.655479
DOCKED: USER    NEWDPF dihe0 24.82 -48.21 -156.44 
DOCKED: USER  keepresnum = 1 
DOCKED: USER  
DOCKED: REMARK SMILES O=C(O)C(=O)O
DOCKED: REMARK SMILES IDX 2 1 1 2 3 3 4 5 5 6 6 7
DOCKED: REMARK H PARENT 3 4 6 8
DOCKED: USER                              x       y       z     vdW  Elec       q    Type
DOCKED: USER                           _______ _______ _______ _____ _____    ______ ____
DOCKED: ROOT
DOCKED: ATOM      1  C   UNL     1       8.036  28.500   7.246 -0.23 -0.21    +0.414 C 
DOCKED: ATOM      2  O   UNL     1       8.575  28.092   6.233 -0.85 +0.08    -0.238 OA
DOCKED: ENDROOT
DOCKED: BRANCH   1   3
DOCKED: ATOM      3  O   UNL     1       6.748  28.844   7.397 -0.17 +0.41    -0.473 OA
DOCKED: ATOM      4  H   UNL     1       6.662  29.486   8.141 -0.36 -0.58    +0.297 HD
DOCKED: ENDBRANCH   1   3
DOCKED: BRANCH   1   5
DOCKED: ATOM      5  C   UNL     1       8.838  28.672   8.545 -0.19 -0.18    +0.414 C 
DOCKED: ATOM      6  O   UNL     1      10.047  28.825   8.514 -0.96 +0.06    -0.238 OA
DOCKED: BRANCH   5   7
DOCKED: ATOM      7  O   UNL     1       8.056  28.629   9.634 -0.23 +0.29    -0.473 OA
DOCKED: ATOM      8  H   UNL     1       7.278  29.222   9.506 -0.38 -0.43    +0.297 HD
DOCKED: ENDBRANCH   5   7
DOCKED: ENDBRANCH   1   5
DOCKED: TORSDOF 3
DOCKED: TER
DOCKED: ENDMDL
________________________________________________________________________________


	BEGINNING GENETIC ALGORITHM DOCKING 9 of 10
Run: 9 Seed: 643902362 1486689925 [ Run 9 of 10 GA/GALS ]
Beginning LAMARCKIAN GENETIC ALGORITHM (LGA), with a maximum of 2500000 energy evaluations.

Final-Value: -5.373


	FINAL GENETIC ALGORITHM DOCKED STATE
	_______________________________________________


Detailed state:  trans 18.635 17.814 3.371 quatxyzw 0.452198 0.802375 0.289483 -0.260597 center 2.820 -0.602 0.099 ntor 3 28.3178 -47.5657 -160.7415
State:	 18.635  17.814   3.371   0.468  0.831  0.300 -149.789     28.32  -47.57 -160.74

DOCKED: MODEL        9
DOCKED: USER    Run = 9
DOCKED: USER    DPF = oxalic_acid.dpf
DOCKED: USER  
DOCKED: USER    Estimated Free Energy of Binding    =   -2.97 kcal/mol  [=(1)+(2)+(3)-(4)]
DOCKED: USER    Estimated Inhibition Constant, Ki   =    6.63 mM (millimolar)  [Temperature = 298.15 K]
DOCKED: USER    
DOCKED: USER    (1) Final Intermolecular Energy     =   -3.87 kcal/mol
DOCKED: USER        vdW + Hbond + desolv Energy     =   -3.37 kcal/mol
DOCKED: USER        Electrostatic Energy            =   -0.49 kcal/mol
DOCKED: USER    (2) Final Total Internal Energy     =   -1.51 kcal/mol
DOCKED: USER    (3) Torsional Free Energy           =   +0.89 kcal/mol
DOCKED: USER    (4) Unbound System's Energy  [=(2)] =   -1.51 kcal/mol
DOCKED: USER    
DOCKED: USER    
DOCKED: USER    NEWDPF move oxalic_acid.pdbqt
DOCKED: USER    NEWDPF about 2.820000 -0.602125 0.098875
DOCKED: USER    NEWDPF tran0 18.634852 17.814287 3.370797
DOCKED: USER    NEWDPF quaternion0 0.452198 0.802375 0.289483 -0.260597
DOCKED: USER    NEWDPF axisangle0 0.468382 0.831091 0.299844 -149.788992
DOCKED: USER    NEWDPF quat0 0.468382 0.831091 0.299844 -149.788992
DOCKED: USER    NEWDPF dihe0 28.32 -47.57 -160.74 
DOCKED: USER  keepresnum = 1 
DOCKED: USER  
DOCKED: REMARK SMILES O=C(O)C(=O)O
DOCKED: REMARK SMILES IDX 2 1 1 2 3 3 4 5 5 6 6 7
DOCKED: REMARK H PARENT 3 4 6 8
DOCKED: USER                              x       y       z     vdW  Elec       q    Type
DOCKED: USER                           _______ _______ _______ _____ _____    ______ ____
DOCKED: ROOT
DOCKED: ATOM      1  C   UNL     1      19.025  17.770   4.031 -0.19 -0.21    +0.414 C 
DOCKED: ATOM      2  O   UNL     1      19.061  18.717   4.796 -0.84 +0.11    -0.238 OA
DOCKED: ENDROOT
DOCKED: BRANCH   1   3
DOCKED: ATOM      3  O   UNL     1      19.614  16.576   4.191 -0.17 +0.33    -0.473 OA
DOCKED: ATOM      4  H   UNL     1      19.819  16.186   3.309 -0.31 -0.45    +0.297 HD
DOCKED: ENDBRANCH   1   3
DOCKED: BRANCH   1   5
DOCKED: ATOM      5  C   UNL     1      18.244  17.859   2.711 -0.21 -0.14    +0.414 C 
DOCKED: ATOM      6  O   UNL     1      17.946  18.941   2.236 -1.04 +0.04    -0.238 OA
DOCKED: BRANCH   5   7
DOCKED: ATOM      7  O   UNL     1      17.964  16.648   2.206 -0.25 +0.23    -0.473 OA
DOCKED: ATOM      8  H   UNL     1      18.776  16.088   2.217 -0.38 -0.40    +0.297 HD
DOCKED: ENDBRANCH   5   7
DOCKED: ENDBRANCH   1   5
DOCKED: TORSDOF 3
DOCKED: TER
DOCKED: ENDMDL
________________________________________________________________________________


	BEGINNING GENETIC ALGORITHM DOCKING 10 of 10
Run: 10 Seed: 1934272015 1121804608 [ Run 10 of 10 GA/GALS ]
Beginning LAMARCKIAN GENETIC ALGORITHM (LGA), with a maximum of 2500000 energy evaluations.

Final-Value: -5.361


	FINAL GENETIC ALGORITHM DOCKED STATE
	_______________________________________________


Detailed state:  trans 18.519 17.735 3.233 quatxyzw -0.109093 -0.419691 0.466774 -0.770766 center 2.820 -0.602 0.099 ntor 3 -44.2654 36.1746 -174.5118
State:	 18.519  17.735   3.233  -0.171 -0.659  0.733 -79.155    -44.27   36.17 -174.51

DOCKED: MODEL       10
DOCKED: USER    Run = 10
DOCKED: USER    DPF = oxalic_acid.dpf
DOCKED: USER  
DOCKED: USER    Estimated Free Energy of Binding    =   -2.95 kcal/mol  [=(1)+(2)+(3)-(4)]
DOCKED: USER    Estimated Inhibition Constant, Ki   =    6.87 mM (millimolar)  [Temperature = 298.15 K]
DOCKED: USER    
DOCKED: USER    (1) Final Intermolecular Energy     =   -3.85 kcal/mol
DOCKED: USER        vdW + Hbond + desolv Energy     =   -3.37 kcal/mol
DOCKED: USER        Electrostatic Energy            =   -0.47 kcal/mol
DOCKED: USER    (2) Final Total Internal Energy     =   -1.52 kcal/mol
DOCKED: USER    (3) Torsional Free Energy           =   +0.89 kcal/mol
DOCKED: USER    (4) Unbound System's Energy  [=(2)] =   -1.52 kcal/mol
DOCKED: USER    
DOCKED: USER    
DOCKED: USER    NEWDPF move oxalic_acid.pdbqt
DOCKED: USER    NEWDPF about 2.820000 -0.602125 0.098875
DOCKED: USER    NEWDPF tran0 18.519462 17.734804 3.232773
DOCKED: USER    NEWDPF quaternion0 -0.109093 -0.419691 0.466774 -0.770766
DOCKED: USER    NEWDPF axisangle0 -0.171229 -0.658733 0.732633 -79.154548
DOCKED: USER    NEWDPF quat0 -0.171229 -0.658733 0.732633 -79.154548
DOCKED: USER    NEWDPF dihe0 -44.27 36.17 -174.51 
DOCKED: USER  keepresnum = 1 
DOCKED: USER  
DOCKED: REMARK SMILES O=C(O)C(=O)O
DOCKED: REMARK SMILES IDX 2 1 1 2 3 3 4 5 5 6 6 7
DOCKED: REMARK H PARENT 3 4 6 8
DOCKED: USER                              x       y       z     vdW  Elec       q    Type
DOCKED: USER                           _______ _______ _______ _____ _____    ______ ____
DOCKED: ROOT
DOCKED: ATOM      1  C   UNL     1      18.185  17.882   2.556 -0.19 -0.13    +0.414 C 
DOCKED: ATOM      2  O   UNL     1      17.950  19.028   2.217 -1.04 +0.04    -0.238 OA
DOCKED: ENDROOT
DOCKED: BRANCH   1   3
DOCKED: ATOM      3  O   UNL     1      17.924  16.762   1.867 -0.28 +0.22    -0.473 OA
DOCKED: ATOM      4  H   UNL     1      18.702  16.157   1.909 -0.37 -0.37    +0.297 HD
DOCKED: ENDBRANCH   1   3
DOCKED: BRANCH   1   5
DOCKED: ATOM      5  C   UNL     1      18.854  17.588   3.909 -0.23 -0.20    +0.414 C 
DOCKED: ATOM      6  O   UNL     1      19.069  18.485   4.704 -0.73 +0.11    -0.238 OA
DOCKED: BRANCH   5   7
DOCKED: ATOM      7  O   UNL     1      19.141  16.286   4.059 -0.17 +0.27    -0.473 OA
DOCKED: ATOM      8  H   UNL     1      19.416  15.905   3.192 -0.37 -0.40    +0.297 HD
DOCKED: ENDBRANCH   5   7
DOCKED: ENDBRANCH   1   5
DOCKED: TORSDOF 3
DOCKED: TER
DOCKED: ENDMDL
________________________________________________________________________________

DPF> analysis


		CLUSTER ANALYSIS OF CONFORMATIONS
		_________________________________

Number of conformations = 10

RMSD cluster analysis will be performed using the ligand atoms only (8 / 8 total atoms).

Outputting structurally similar clusters, ranked in order of increasing energy.


________________________________________________________________________________

Number of distinct conformational clusters found = 2,  out of 10 runs,
Using an rmsd-tolerance of 2.0 A


	CLUSTERING HISTOGRAM
	____________________

________________________________________________________________________________
     |           |     |           |     |                                    
Clus | Lowest    | Run | Mean      | Num | Histogram                          
-ter | Binding   |     | Binding   | in  |                                    
Rank | Energy    |     | Energy    | Clus|    5    10   15   20   25   30   35
_____|___________|_____|___________|_____|____:____|____:____|____:____|____:___
   1 |     -3.04 |   4 |     -3.00 |   4 |####
   2 |     -2.97 |   9 |     -2.89 |   6 |######
_____|___________|_____|___________|_____|______________________________________


Number of multi-member conformational clusters found = 2, out of 10 runs.

	RMSD TABLE
	__________

_____________________________________________________________________
     |      |      |           |         |                 |
Rank | Sub- | Run  | Binding   | Cluster | Reference       | Grep
     | Rank |      | Energy    | RMSD    | RMSD            | Pattern
_____|______|______|___________|_________|_________________|___________
   1      1      4       -3.04      0.00     29.84           RANKING
   1      2      8       -3.03      0.27     29.98           RANKING
   1      3      3       -3.00      0.20     29.89           RANKING
   1      4      6       -2.93      0.38     29.96           RANKING
   2      1      9       -2.97      0.00     23.17           RANKING
   2      2      2       -2.96      0.53     22.87           RANKING
   2      3     10       -2.95      0.35     22.98           RANKING
   2      4      5       -2.91      0.45     22.88           RANKING
   2      5      1       -2.89      0.40     22.92           RANKING
   2      6      7       -2.64      1.21     23.01           RANKING
_______________________________________________________________________



	INFORMATION ENTROPY ANALYSIS FOR THIS CLUSTERING
	________________________________________________


Information entropy for this clustering = 0.29  (rmstol = 2.00 Angstrom)

_______________________________________________________________________


	STATISTICAL MECHANICAL ANALYSIS
	_______________________________


Partition function, Q =    10.05            at Temperature, T = 298.15 K
Free energy,        A ~ -1367.17 kcal/mol   at Temperature, T = 298.15 K
Internal energy,    U =    -2.93 kcal/mol   at Temperature, T = 298.15 K
Entropy,            S =     4.58 kcal/mol/K at Temperature, T = 298.15 K

_______________________________________________________________________


	LOWEST ENERGY DOCKED CONFORMATION from EACH CLUSTER
	___________________________________________________



Keeping original residue number (specified in the input PDBQ file) for outputting.

MODEL        4
USER    Run = 4
USER    Cluster Rank = 1
USER    Number of conformations in this cluster = 4
USER  
USER    RMSD from reference structure       = 29.843 A
USER  
USER    Estimated Free Energy of Binding    =   -3.04 kcal/mol  [=(1)+(2)+(3)-(4)]
USER    Estimated Inhibition Constant, Ki   =    5.94 mM (millimolar)  [Temperature = 298.15 K]
USER    
USER    (1) Final Intermolecular Energy     =   -3.93 kcal/mol
USER        vdW + Hbond + desolv Energy     =   -3.42 kcal/mol
USER        Electrostatic Energy            =   -0.52 kcal/mol
USER    (2) Final Total Internal Energy     =   -1.51 kcal/mol
USER    (3) Torsional Free Energy           =   +0.89 kcal/mol
USER    (4) Unbound System's Energy  [=(2)] =   -1.51 kcal/mol
USER    
USER    
USER  
USER    DPF = oxalic_acid.dpf
USER    NEWDPF move	oxalic_acid.pdbqt
USER    NEWDPF about	2.820000 -0.602125 0.098875
USER    NEWDPF tran0	8.413495 28.475260 7.663844
USER    NEWDPF axisangle0	0.972106 -0.212804 0.098607 85.424671
USER    NEWDPF quaternion0	0.659397 -0.144349 0.066887 0.734769
USER    NEWDPF dihe0	25.69 -46.07 -162.52 
USER  
USER                              x       y       z    vdW   Elec        q     RMS 
ATOM      1  C   UNL     1       7.987  28.454   7.025 -0.22 -0.21    +0.414    29.843
ATOM      2  O   UNL     1       8.470  28.093   5.967 -0.85 +0.09    -0.238    29.843
ATOM      3  O   UNL     1       6.724  28.850   7.247 -0.17 +0.40    -0.473    29.843
ATOM      4  H   UNL     1       6.698  29.453   8.027 -0.34 -0.53    +0.297    29.843
ATOM      5  C   UNL     1       8.840  28.496   8.302 -0.26 -0.17    +0.414    29.843
ATOM      6  O   UNL     1      10.057  28.480   8.238 -0.94 +0.06    -0.238    29.843
ATOM      7  O   UNL     1       8.088  28.546   9.412 -0.25 +0.28    -0.473    29.843
ATOM      8  H   UNL     1       7.376  29.219   9.300 -0.38 -0.44    +0.297    29.843
TER
ENDMDL
MODEL        9
USER    Run = 9
USER    Cluster Rank = 2
USER    Number of conformations in this cluster = 6
USER  
USER    RMSD from reference structure       = 23.170 A
USER  
USER    Estimated Free Energy of Binding    =   -2.97 kcal/mol  [=(1)+(2)+(3)-(4)]
USER    Estimated Inhibition Constant, Ki   =    6.63 mM (millimolar)  [Temperature = 298.15 K]
USER    
USER    (1) Final Intermolecular Energy     =   -3.87 kcal/mol
USER        vdW + Hbond + desolv Energy     =   -3.37 kcal/mol
USER        Electrostatic Energy            =   -0.49 kcal/mol
USER    (2) Final Total Internal Energy     =   -1.51 kcal/mol
USER    (3) Torsional Free Energy           =   +0.89 kcal/mol
USER    (4) Unbound System's Energy  [=(2)] =   -1.51 kcal/mol
USER    
USER    
USER  
USER    DPF = oxalic_acid.dpf
USER    NEWDPF move	oxalic_acid.pdbqt
USER    NEWDPF about	2.820000 -0.602125 0.098875
USER    NEWDPF tran0	18.634852 17.814287 3.370797
USER    NEWDPF axisangle0	0.468382 0.831091 0.299844 -149.788992
USER    NEWDPF quaternion0	0.452198 0.802375 0.289483 -0.260597
USER    NEWDPF dihe0	28.32 -47.57 -160.74 
USER  
USER                              x       y       z    vdW   Elec        q     RMS 
ATOM      1  C   UNL     1      19.025  17.770   4.031 -0.19 -0.21    +0.414    23.170
ATOM      2  O   UNL     1      19.061  18.717   4.796 -0.84 +0.11    -0.238    23.170
ATOM      3  O   UNL     1      19.614  16.576   4.191 -0.17 +0.33    -0.473    23.170
ATOM      4  H   UNL     1      19.819  16.186   3.309 -0.31 -0.45    +0.297    23.170
ATOM      5  C   UNL     1      18.244  17.859   2.711 -0.21 -0.14    +0.414    23.170
ATOM      6  O   UNL     1      17.946  18.941   2.236 -1.04 +0.04    -0.238    23.170
ATOM      7  O   UNL     1      17.964  16.648   2.206 -0.25 +0.23    -0.473    23.170
ATOM      8  H   UNL     1      18.776  16.088   2.217 -0.38 -0.40    +0.297    23.170
TER
ENDMDL


AVSFLD: # AVS field file
AVSFLD: #
AVSFLD: # Created by AutoDock
AVSFLD: #
AVSFLD: ndim=2           # number of dimensions in the field
AVSFLD: nspace=1         # number of physical coordinates
AVSFLD: veclen=7         # vector size
AVSFLD: dim1=8           # atoms
AVSFLD: dim2=2           # conformations
AVSFLD: data=Real       # data type (byte,integer,Real,double)
AVSFLD: field=uniform    # field coordinate layout
AVSFLD: label= x y z vdW Elec q RMS
AVSFLD: variable 1 file = oxalic_acid.dlg.pdb filetype = ascii offset = 5 stride = 12
AVSFLD: variable 2 file = oxalic_acid.dlg.pdb filetype = ascii offset = 6 stride = 12
AVSFLD: variable 3 file = oxalic_acid.dlg.pdb filetype = ascii offset = 7 stride = 12
AVSFLD: variable 4 file = oxalic_acid.dlg.pdb filetype = ascii offset = 8 stride = 12
AVSFLD: variable 5 file = oxalic_acid.dlg.pdb filetype = ascii offset = 9 stride = 12
AVSFLD: variable 6 file = oxalic_acid.dlg.pdb filetype = ascii offset = 10 stride = 12
AVSFLD: variable 7 file = oxalic_acid.dlg.pdb filetype = ascii offset = 11 stride = 12
AVSFLD: # end of file

>>> Closing the docking parameter file (DPF)...
This docking finished at:			0:21 05" a.m., 09/14/2026


________________________________________________________________________________

autodock4: Successful Completion on "VP"

Real= 1m 02.97s,  CPU= 1m 02.92s,  System= 0.04s
________________________________________________________________________________

