MODEL 1
REMARK minimizedAffinity -5.49625587
REMARK minimizedRMSD -1
REMARK SMILES Cn1c(=O)c2c(ncn2C)n(C)c1=O
REMARK SMILES IDX 10 1 9 2 8 3 7 4 6 5 5 6 3 7 4 8 2 9 1 10 13 11 14 12 11 13
REMARK SMILES IDX 12 14
REMARK H PARENT
ROOT
ATOM      1  C   UNL     1       9.284  25.696   3.376  1.00  0.00    +0.151 C 
ATOM      2  N   UNL     1       9.219  26.413   4.625  1.00  0.00    -0.328 N 
ATOM      3  C   UNL     1       8.357  27.433   4.929  1.00  0.00    +0.202 A 
ATOM      4  N   UNL     1       8.548  27.883   6.153  1.00  0.00    -0.218 NA
ATOM      5  C   UNL     1       9.566  27.119   6.640  1.00  0.00    +0.167 A 
ATOM      6  C   UNL     1      10.000  26.208   5.726  1.00  0.00    +0.152 A 
ATOM      7  C   UNL     1      11.053  25.290   5.982  1.00  0.00    +0.282 A 
ATOM      8  O   UNL     1      11.438  24.472   5.150  1.00  0.00    -0.267 OA
ATOM      9  N   UNL     1      11.589  25.424   7.266  1.00  0.00    -0.261 N 
ATOM     10  C   UNL     1      12.671  24.539   7.651  1.00  0.00    +0.159 C 
ATOM     11  C   UNL     1      11.168  26.355   8.239  1.00  0.00    +0.332 A 
ATOM     12  O   UNL     1      11.706  26.397   9.350  1.00  0.00    -0.247 OA
ATOM     13  N   UNL     1      10.127  27.215   7.890  1.00  0.00    -0.279 N 
ATOM     14  C   UNL     1       9.635  28.201   8.835  1.00  0.00    +0.157 C 
ENDROOT
TORSDOF 0
ENDMDL
MODEL 2
REMARK minimizedAffinity -5.48821068
REMARK minimizedRMSD -1
REMARK SMILES Cn1c(=O)c2c(ncn2C)n(C)c1=O
REMARK SMILES IDX 10 1 9 2 8 3 7 4 6 5 5 6 3 7 4 8 2 9 1 10 13 11 14 12 11 13
REMARK SMILES IDX 12 14
REMARK H PARENT
ROOT
ATOM      1  C   UNL     1      17.307  17.835   1.837  1.00  0.00    +0.151 C 
ATOM      2  N   UNL     1      16.456  18.735   2.573  1.00  0.00    -0.328 N 
ATOM      3  C   UNL     1      15.255  19.241   2.151  1.00  0.00    +0.202 A 
ATOM      4  N   UNL     1      14.719  20.039   3.054  1.00  0.00    -0.218 NA
ATOM      5  C   UNL     1      15.613  20.037   4.082  1.00  0.00    +0.167 A 
ATOM      6  C   UNL     1      16.690  19.247   3.818  1.00  0.00    +0.152 A 
ATOM      7  C   UNL     1      17.768  19.070   4.726  1.00  0.00    +0.282 A 
ATOM      8  O   UNL     1      18.735  18.356   4.478  1.00  0.00    -0.267 OA
ATOM      9  N   UNL     1      17.601  19.792   5.912  1.00  0.00    -0.261 N 
ATOM     10  C   UNL     1      18.634  19.693   6.923  1.00  0.00    +0.159 C 
ATOM     11  C   UNL     1      16.502  20.621   6.221  1.00  0.00    +0.332 A 
ATOM     12  O   UNL     1      16.444  21.221   7.300  1.00  0.00    -0.247 OA
ATOM     13  N   UNL     1      15.495  20.729   5.262  1.00  0.00    -0.279 N 
ATOM     14  C   UNL     1      14.330  21.562   5.504  1.00  0.00    +0.157 C 
ENDROOT
TORSDOF 0
ENDMDL
MODEL 3
REMARK minimizedAffinity -5.47061157
REMARK minimizedRMSD -1
REMARK SMILES Cn1c(=O)c2c(ncn2C)n(C)c1=O
REMARK SMILES IDX 10 1 9 2 8 3 7 4 6 5 5 6 3 7 4 8 2 9 1 10 13 11 14 12 11 13
REMARK SMILES IDX 12 14
REMARK H PARENT
ROOT
ATOM      1  C   UNL     1      13.040  24.004   6.488  1.00  0.00    +0.151 C 
ATOM      2  N   UNL     1      12.319  24.987   7.257  1.00  0.00    -0.328 N 
ATOM      3  C   UNL     1      12.579  25.352   8.551  1.00  0.00    +0.202 A 
ATOM      4  N   UNL     1      11.739  26.277   8.973  1.00  0.00    -0.218 NA
ATOM      5  C   UNL     1      10.921  26.504   7.907  1.00  0.00    +0.167 A 
ATOM      6  C   UNL     1      11.250  25.728   6.839  1.00  0.00    +0.152 A 
ATOM      7  C   UNL     1      10.553  25.769   5.602  1.00  0.00    +0.282 A 
ATOM      8  O   UNL     1      10.858  25.064   4.644  1.00  0.00    -0.267 OA
ATOM      9  N   UNL     1       9.502  26.690   5.603  1.00  0.00    -0.261 N 
ATOM     10  C   UNL     1       8.713  26.829   4.394  1.00  0.00    +0.159 C 
ATOM     11  C   UNL     1       9.129  27.510   6.689  1.00  0.00    +0.332 A 
ATOM     12  O   UNL     1       8.180  28.296   6.594  1.00  0.00    -0.247 OA
ATOM     13  N   UNL     1       9.876  27.394   7.861  1.00  0.00    -0.279 N 
ATOM     14  C   UNL     1       9.557  28.203   9.024  1.00  0.00    +0.157 C 
ENDROOT
TORSDOF 0
ENDMDL
MODEL 4
REMARK minimizedAffinity -5.43519163
REMARK minimizedRMSD -1
REMARK SMILES Cn1c(=O)c2c(ncn2C)n(C)c1=O
REMARK SMILES IDX 10 1 9 2 8 3 7 4 6 5 5 6 3 7 4 8 2 9 1 10 13 11 14 12 11 13
REMARK SMILES IDX 12 14
REMARK H PARENT
ROOT
ATOM      1  C   UNL     1      13.493  21.720   3.680  1.00  0.00    +0.151 C 
ATOM      2  N   UNL     1      14.645  21.330   4.454  1.00  0.00    -0.328 N 
ATOM      3  C   UNL     1      15.000  21.822   5.682  1.00  0.00    +0.202 A 
ATOM      4  N   UNL     1      16.108  21.264   6.127  1.00  0.00    -0.218 NA
ATOM      5  C   UNL     1      16.465  20.389   5.145  1.00  0.00    +0.167 A 
ATOM      6  C   UNL     1      15.588  20.406   4.105  1.00  0.00    +0.152 A 
ATOM      7  C   UNL     1      15.730  19.587   2.953  1.00  0.00    +0.282 A 
ATOM      8  O   UNL     1      14.932  19.611   2.019  1.00  0.00    -0.267 OA
ATOM      9  N   UNL     1      16.861  18.768   3.006  1.00  0.00    -0.261 N 
ATOM     10  C   UNL     1      17.116  17.881   1.888  1.00  0.00    +0.159 C 
ATOM     11  C   UNL     1      17.793  18.722   4.065  1.00  0.00    +0.332 A 
ATOM     12  O   UNL     1      18.766  17.962   4.020  1.00  0.00    -0.247 OA
ATOM     13  N   UNL     1      17.565  19.566   5.152  1.00  0.00    -0.279 N 
ATOM     14  C   UNL     1      18.478  19.579   6.281  1.00  0.00    +0.157 C 
ENDROOT
TORSDOF 0
ENDMDL
MODEL 5
REMARK minimizedAffinity -5.39648676
REMARK minimizedRMSD -1
REMARK SMILES Cn1c(=O)c2c(ncn2C)n(C)c1=O
REMARK SMILES IDX 10 1 9 2 8 3 7 4 6 5 5 6 3 7 4 8 2 9 1 10 13 11 14 12 11 13
REMARK SMILES IDX 12 14
REMARK H PARENT
ROOT
ATOM      1  C   UNL     1      17.220  17.223   1.793  1.00  0.00    +0.151 C 
ATOM      2  N   UNL     1      17.477  17.803   3.087  1.00  0.00    -0.328 N 
ATOM      3  C   UNL     1      18.440  17.407   3.976  1.00  0.00    +0.202 A 
ATOM      4  N   UNL     1      18.420  18.137   5.074  1.00  0.00    -0.218 NA
ATOM      5  C   UNL     1      17.408  19.027   4.870  1.00  0.00    +0.167 A 
ATOM      6  C   UNL     1      16.809  18.848   3.660  1.00  0.00    +0.152 A 
ATOM      7  C   UNL     1      15.726  19.645   3.202  1.00  0.00    +0.282 A 
ATOM      8  O   UNL     1      15.193  19.475   2.109  1.00  0.00    -0.267 OA
ATOM      9  N   UNL     1      15.348  20.626   4.123  1.00  0.00    -0.261 N 
ATOM     10  C   UNL     1      14.253  21.508   3.771  1.00  0.00    +0.159 C 
ATOM     11  C   UNL     1      15.942  20.841   5.385  1.00  0.00    +0.332 A 
ATOM     12  O   UNL     1      15.535  21.737   6.132  1.00  0.00    -0.247 OA
ATOM     13  N   UNL     1      16.999  20.005   5.744  1.00  0.00    -0.279 N 
ATOM     14  C   UNL     1      17.664  20.161   7.025  1.00  0.00    +0.157 C 
ENDROOT
TORSDOF 0
ENDMDL
MODEL 6
REMARK minimizedAffinity -5.3306036
REMARK minimizedRMSD -1
REMARK SMILES Cn1c(=O)c2c(ncn2C)n(C)c1=O
REMARK SMILES IDX 10 1 9 2 8 3 7 4 6 5 5 6 3 7 4 8 2 9 1 10 13 11 14 12 11 13
REMARK SMILES IDX 12 14
REMARK H PARENT
ROOT
ATOM      1  C   UNL     1      12.721  23.820   7.058  1.00  0.00    +0.151 C 
ATOM      2  N   UNL     1      11.757  24.571   6.294  1.00  0.00    -0.328 N 
ATOM      3  C   UNL     1      11.421  24.362   4.983  1.00  0.00    +0.202 A 
ATOM      4  N   UNL     1      10.506  25.218   4.572  1.00  0.00    -0.218 NA
ATOM      5  C   UNL     1      10.256  25.995   5.663  1.00  0.00    +0.167 A 
ATOM      6  C   UNL     1      11.007  25.624   6.736  1.00  0.00    +0.152 A 
ATOM      7  C   UNL     1      10.937  26.273   7.998  1.00  0.00    +0.282 A 
ATOM      8  O   UNL     1      11.621  25.931   8.959  1.00  0.00    -0.267 OA
ATOM      9  N   UNL     1      10.018  27.326   8.015  1.00  0.00    -0.261 N 
ATOM     10  C   UNL     1       9.851  28.067   9.250  1.00  0.00    +0.159 C 
ATOM     11  C   UNL     1       9.223  27.740   6.926  1.00  0.00    +0.332 A 
ATOM     12  O   UNL     1       8.436  28.686   7.040  1.00  0.00    -0.247 OA
ATOM     13  N   UNL     1       9.365  27.039   5.729  1.00  0.00    -0.279 N 
ATOM     14  C   UNL     1       8.584  27.404   4.561  1.00  0.00    +0.157 C 
ENDROOT
TORSDOF 0
ENDMDL
MODEL 7
REMARK minimizedAffinity -5.32149553
REMARK minimizedRMSD -1
REMARK SMILES Cn1c(=O)c2c(ncn2C)n(C)c1=O
REMARK SMILES IDX 10 1 9 2 8 3 7 4 6 5 5 6 3 7 4 8 2 9 1 10 13 11 14 12 11 13
REMARK SMILES IDX 12 14
REMARK H PARENT
ROOT
ATOM      1  C   UNL     1       9.849  27.515   8.757  1.00  0.00    +0.151 C 
ATOM      2  N   UNL     1      10.090  26.875   7.488  1.00  0.00    -0.328 N 
ATOM      3  C   UNL     1       9.364  27.052   6.341  1.00  0.00    +0.202 A 
ATOM      4  N   UNL     1       9.837  26.322   5.349  1.00  0.00    -0.218 NA
ATOM      5  C   UNL     1      10.899  25.663   5.890  1.00  0.00    +0.167 A 
ATOM      6  C   UNL     1      11.081  25.980   7.201  1.00  0.00    +0.152 A 
ATOM      7  C   UNL     1      12.120  25.429   7.998  1.00  0.00    +0.282 A 
ATOM      8  O   UNL     1      12.275  25.722   9.181  1.00  0.00    -0.267 OA
ATOM      9  N   UNL     1      12.929  24.534   7.292  1.00  0.00    -0.261 N 
ATOM     10  C   UNL     1      14.029  23.906   7.996  1.00  0.00    +0.159 C 
ATOM     11  C   UNL     1      12.772  24.180   5.936  1.00  0.00    +0.332 A 
ATOM     12  O   UNL     1      13.540  23.375   5.398  1.00  0.00    -0.247 OA
ATOM     13  N   UNL     1      11.720  24.774   5.238  1.00  0.00    -0.279 N 
ATOM     14  C   UNL     1      11.491  24.463   3.839  1.00  0.00    +0.157 C 
ENDROOT
TORSDOF 0
ENDMDL
MODEL 8
REMARK minimizedAffinity -5.29745674
REMARK minimizedRMSD -1
REMARK SMILES Cn1c(=O)c2c(ncn2C)n(C)c1=O
REMARK SMILES IDX 10 1 9 2 8 3 7 4 6 5 5 6 3 7 4 8 2 9 1 10 13 11 14 12 11 13
REMARK SMILES IDX 12 14
REMARK H PARENT
ROOT
ATOM      1  C   UNL     1       9.817  28.138   8.550  1.00  0.00    +0.151 C 
ATOM      2  N   UNL     1      10.236  26.881   7.982  1.00  0.00    -0.328 N 
ATOM      3  C   UNL     1      10.980  25.917   8.608  1.00  0.00    +0.202 A 
ATOM      4  N   UNL     1      11.199  24.883   7.821  1.00  0.00    -0.218 NA
ATOM      5  C   UNL     1      10.569  25.205   6.656  1.00  0.00    +0.167 A 
ATOM      6  C   UNL     1       9.969  26.425   6.722  1.00  0.00    +0.152 A 
ATOM      7  C   UNL     1       9.245  26.997   5.642  1.00  0.00    +0.282 A 
ATOM      8  O   UNL     1       8.708  28.099   5.713  1.00  0.00    -0.267 OA
ATOM      9  N   UNL     1       9.217  26.174   4.513  1.00  0.00    -0.261 N 
ATOM     10  C   UNL     1       8.505  26.645   3.341  1.00  0.00    +0.159 C 
ATOM     11  C   UNL     1       9.826  24.906   4.405  1.00  0.00    +0.332 A 
ATOM     12  O   UNL     1       9.747  24.251   3.360  1.00  0.00    -0.247 OA
ATOM     13  N   UNL     1      10.516  24.432   5.521  1.00  0.00    -0.279 N 
ATOM     14  C   UNL     1      11.170  23.137   5.492  1.00  0.00    +0.157 C 
ENDROOT
TORSDOF 0
ENDMDL
MODEL 9
REMARK minimizedAffinity -5.29505777
REMARK minimizedRMSD -1
REMARK SMILES Cn1c(=O)c2c(ncn2C)n(C)c1=O
REMARK SMILES IDX 10 1 9 2 8 3 7 4 6 5 5 6 3 7 4 8 2 9 1 10 13 11 14 12 11 13
REMARK SMILES IDX 12 14
REMARK H PARENT
ROOT
ATOM      1  C   UNL     1      18.578  19.656   7.429  1.00  0.00    +0.151 C 
ATOM      2  N   UNL     1      17.404  20.174   6.771  1.00  0.00    -0.328 N 
ATOM      3  C   UNL     1      16.486  21.034   7.310  1.00  0.00    +0.202 A 
ATOM      4  N   UNL     1      15.525  21.319   6.454  1.00  0.00    -0.218 NA
ATOM      5  C   UNL     1      15.849  20.614   5.334  1.00  0.00    +0.167 A 
ATOM      6  C   UNL     1      16.997  19.901   5.496  1.00  0.00    +0.152 A 
ATOM      7  C   UNL     1      17.555  19.081   4.478  1.00  0.00    +0.282 A 
ATOM      8  O   UNL     1      18.591  18.441   4.635  1.00  0.00    -0.267 OA
ATOM      9  N   UNL     1      16.801  19.090   3.302  1.00  0.00    -0.261 N 
ATOM     10  C   UNL     1      17.268  18.293   2.185  1.00  0.00    +0.159 C 
ATOM     11  C   UNL     1      15.607  19.814   3.096  1.00  0.00    +0.332 A 
ATOM     12  O   UNL     1      15.010  19.757   2.016  1.00  0.00    -0.247 OA
ATOM     13  N   UNL     1      15.140  20.589   4.157  1.00  0.00    -0.279 N 
ATOM     14  C   UNL     1      13.920  21.364   4.026  1.00  0.00    +0.157 C 
ENDROOT
TORSDOF 0
ENDMDL
