MODEL 1
REMARK minimizedAffinity -5.68686867
REMARK minimizedRMSD -1
REMARK SMILES O=C(O)CN(CCN(CC(=O)O)CC(=O)O)CC(=O)O
REMARK SMILES IDX 6 1 5 2 4 3 2 4 1 5 3 6 17 8 18 9 19 10 20 11 7 13 8 14 9 15
REMARK SMILES IDX 10 16 11 17 12 18 13 20 14 21 15 22 16 23
REMARK H PARENT 3 7 20 12 12 19 16 24
ROOT
ATOM      1  C   UNL     1      14.259  21.144   5.280  1.00  0.00    +0.101 C 
ENDROOT
BRANCH   1   2
ATOM      2  N   UNL     1      14.480  22.433   5.997  1.00  0.00    -0.281 NA
BRANCH   2   3
ATOM      3  C   UNL     1      13.305  23.305   5.700  1.00  0.00    +0.208 C 
BRANCH   3   4
ATOM      4  C   UNL     1      13.735  24.669   5.184  1.00  0.00    +0.317 C 
ATOM      5  O   UNL     1      13.051  25.679   5.285  1.00  0.00    -0.251 OA
BRANCH   4   6
ATOM      6  O   UNL     1      14.994  24.673   4.692  1.00  0.00    -0.480 OA
ATOM      7  H   UNL     1      15.398  23.784   4.814  1.00  0.00    +0.296 HD
ENDBRANCH   4   6
ENDBRANCH   3   4
ENDBRANCH   2   3
BRANCH   2   8
ATOM      8  C   UNL     1      14.709  22.244   7.458  1.00  0.00    +0.208 C 
BRANCH   8   9
ATOM      9  C   UNL     1      15.957  22.929   8.002  1.00  0.00    +0.317 C 
ATOM     10  O   UNL     1      16.448  22.662   9.091  1.00  0.00    -0.251 OA
BRANCH   9  11
ATOM     11  O   UNL     1      16.459  23.898   7.204  1.00  0.00    -0.480 OA
ATOM     12  H   UNL     1      16.003  24.052   6.350  1.00  0.00    +0.296 HD
ENDBRANCH   9  11
ENDBRANCH   8   9
ENDBRANCH   2   8
ENDBRANCH   1   2
BRANCH   1  13
ATOM     13  C   UNL     1      14.982  20.929   3.921  1.00  0.00    +0.101 C 
BRANCH  13  14
ATOM     14  N   UNL     1      16.098  19.943   3.965  1.00  0.00    -0.281 NA
BRANCH  14  15
ATOM     15  C   UNL     1      16.259  19.282   5.291  1.00  0.00    +0.208 C 
BRANCH  15  16
ATOM     16  C   UNL     1      17.502  19.707   6.073  1.00  0.00    +0.317 C 
ATOM     17  O   UNL     1      17.538  19.805   7.292  1.00  0.00    -0.251 OA
BRANCH  16  18
ATOM     18  O   UNL     1      18.581  19.961   5.302  1.00  0.00    -0.480 OA
ATOM     19  H   UNL     1      18.486  19.757   4.347  1.00  0.00    +0.296 HD
ENDBRANCH  16  18
ENDBRANCH  15  16
ENDBRANCH  14  15
BRANCH  14  20
ATOM     20  C   UNL     1      15.921  18.953   2.873  1.00  0.00    +0.208 C 
BRANCH  20  21
ATOM     21  C   UNL     1      17.236  18.239   2.583  1.00  0.00    +0.317 C 
ATOM     22  O   UNL     1      18.334  18.772   2.667  1.00  0.00    -0.251 OA
BRANCH  21  23
ATOM     23  O   UNL     1      17.063  16.995   2.078  1.00  0.00    -0.480 OA
ATOM     24  H   UNL     1      16.109  16.806   1.940  1.00  0.00    +0.296 HD
ENDBRANCH  21  23
ENDBRANCH  20  21
ENDBRANCH  14  20
ENDBRANCH  13  14
ENDBRANCH   1  13
TORSDOF 15
ENDMDL
MODEL 2
REMARK minimizedAffinity -5.68618965
REMARK minimizedRMSD -1
REMARK SMILES O=C(O)CN(CCN(CC(=O)O)CC(=O)O)CC(=O)O
REMARK SMILES IDX 6 1 5 2 4 3 2 4 1 5 3 6 17 8 18 9 19 10 20 11 7 13 8 14 9 15
REMARK SMILES IDX 10 16 11 17 12 18 13 20 14 21 15 22 16 23
REMARK H PARENT 3 7 20 12 12 19 16 24
ROOT
ATOM      1  C   UNL     1      12.260  21.920   5.596  1.00  0.00    +0.101 C 
ENDROOT
BRANCH   1   2
ATOM      2  N   UNL     1      12.936  22.426   4.366  1.00  0.00    -0.281 NA
BRANCH   2   3
ATOM      3  C   UNL     1      14.028  21.460   4.040  1.00  0.00    +0.208 C 
BRANCH   3   4
ATOM      4  C   UNL     1      15.382  21.964   4.514  1.00  0.00    +0.317 C 
ATOM      5  O   UNL     1      16.199  21.264   5.098  1.00  0.00    -0.251 OA
BRANCH   4   6
ATOM      6  O   UNL     1      15.633  23.236   4.135  1.00  0.00    -0.480 OA
ATOM      7  H   UNL     1      14.892  23.567   3.580  1.00  0.00    +0.296 HD
ENDBRANCH   4   6
ENDBRANCH   3   4
ENDBRANCH   2   3
BRANCH   2   8
ATOM      8  C   UNL     1      11.988  22.635   3.236  1.00  0.00    +0.208 C 
BRANCH   8   9
ATOM      9  C   UNL     1      11.330  24.008   3.201  1.00  0.00    +0.317 C 
ATOM     10  O   UNL     1      10.138  24.187   3.419  1.00  0.00    -0.251 OA
BRANCH   9  11
ATOM     11  O   UNL     1      12.158  25.021   2.862  1.00  0.00    -0.480 OA
ATOM     12  H   UNL     1      13.097  24.791   2.699  1.00  0.00    +0.296 HD
ENDBRANCH   9  11
ENDBRANCH   8   9
ENDBRANCH   2   8
ENDBRANCH   1   2
BRANCH   1  13
ATOM     13  C   UNL     1      13.042  21.981   6.938  1.00  0.00    +0.101 C 
BRANCH  13  14
ATOM     14  N   UNL     1      13.719  23.282   7.197  1.00  0.00    -0.281 NA
BRANCH  14  15
ATOM     15  C   UNL     1      12.780  24.433   7.311  1.00  0.00    +0.208 C 
BRANCH  15  16
ATOM     16  C   UNL     1      12.759  25.366   6.100  1.00  0.00    +0.317 C 
ATOM     17  O   UNL     1      11.835  26.126   5.844  1.00  0.00    -0.251 OA
BRANCH  16  18
ATOM     18  O   UNL     1      13.863  25.294   5.326  1.00  0.00    -0.480 OA
ATOM     19  H   UNL     1      14.592  24.734   5.667  1.00  0.00    +0.296 HD
ENDBRANCH  16  18
ENDBRANCH  15  16
ENDBRANCH  14  15
BRANCH  14  20
ATOM     20  C   UNL     1      14.584  23.155   8.398  1.00  0.00    +0.208 C 
BRANCH  20  21
ATOM     21  C   UNL     1      16.052  23.293   8.013  1.00  0.00    +0.317 C 
ATOM     22  O   UNL     1      16.980  22.931   8.723  1.00  0.00    -0.251 OA
BRANCH  21  23
ATOM     23  O   UNL     1      16.235  23.994   6.869  1.00  0.00    -0.480 OA
ATOM     24  H   UNL     1      15.379  24.333   6.528  1.00  0.00    +0.296 HD
ENDBRANCH  21  23
ENDBRANCH  20  21
ENDBRANCH  14  20
ENDBRANCH  13  14
ENDBRANCH   1  13
TORSDOF 15
ENDMDL
MODEL 3
REMARK minimizedAffinity -5.64625502
REMARK minimizedRMSD -1
REMARK SMILES O=C(O)CN(CCN(CC(=O)O)CC(=O)O)CC(=O)O
REMARK SMILES IDX 6 1 5 2 4 3 2 4 1 5 3 6 17 8 18 9 19 10 20 11 7 13 8 14 9 15
REMARK SMILES IDX 10 16 11 17 12 18 13 20 14 21 15 22 16 23
REMARK H PARENT 3 7 20 12 12 19 16 24
ROOT
ATOM      1  C   UNL     1      10.760  24.960   7.398  1.00  0.00    +0.101 C 
ENDROOT
BRANCH   1   2
ATOM      2  N   UNL     1       9.945  26.117   6.925  1.00  0.00    -0.281 NA
BRANCH   2   3
ATOM      3  C   UNL     1       9.174  25.650   5.734  1.00  0.00    +0.208 C 
BRANCH   3   4
ATOM      4  C   UNL     1       9.179  26.686   4.622  1.00  0.00    +0.317 C 
ATOM      5  O   UNL     1       8.908  27.868   4.795  1.00  0.00    -0.251 OA
BRANCH   4   6
ATOM      6  O   UNL     1       9.610  26.192   3.442  1.00  0.00    -0.480 OA
ATOM      7  H   UNL     1       9.883  25.253   3.558  1.00  0.00    +0.296 HD
ENDBRANCH   4   6
ENDBRANCH   3   4
ENDBRANCH   2   3
BRANCH   2   8
ATOM      8  C   UNL     1       9.076  26.681   7.996  1.00  0.00    +0.208 C 
BRANCH   8   9
ATOM      9  C   UNL     1       9.270  28.169   8.257  1.00  0.00    +0.317 C 
ATOM     10  O   UNL     1      10.119  28.612   9.019  1.00  0.00    -0.251 OA
BRANCH   9  11
ATOM     11  O   UNL     1       8.392  28.972   7.613  1.00  0.00    -0.480 OA
ATOM     12  H   UNL     1       7.741  28.536   7.025  1.00  0.00    +0.296 HD
ENDBRANCH   9  11
ENDBRANCH   8   9
ENDBRANCH   2   8
ENDBRANCH   1   2
BRANCH   1  13
ATOM     13  C   UNL     1      12.186  25.245   7.947  1.00  0.00    +0.101 C 
BRANCH  13  14
ATOM     14  N   UNL     1      13.283  24.583   7.185  1.00  0.00    -0.281 NA
BRANCH  14  15
ATOM     15  C   UNL     1      14.090  23.634   8.003  1.00  0.00    +0.208 C 
BRANCH  15  16
ATOM     16  C   UNL     1      15.295  23.029   7.281  1.00  0.00    +0.317 C 
ATOM     17  O   UNL     1      15.490  21.827   7.175  1.00  0.00    -0.251 OA
BRANCH  16  18
ATOM     18  O   UNL     1      16.136  23.942   6.748  1.00  0.00    -0.480 OA
ATOM     19  H   UNL     1      15.843  24.877   6.795  1.00  0.00    +0.296 HD
ENDBRANCH  16  18
ENDBRANCH  15  16
ENDBRANCH  14  15
BRANCH  14  20
ATOM     20  C   UNL     1      12.717  23.929   5.979  1.00  0.00    +0.208 C 
BRANCH  20  21
ATOM     21  C   UNL     1      13.020  24.753   4.734  1.00  0.00    +0.317 C 
ATOM     22  O   UNL     1      12.224  24.933   3.824  1.00  0.00    -0.251 OA
BRANCH  21  23
ATOM     23  O   UNL     1      14.314  25.147   4.664  1.00  0.00    -0.480 OA
ATOM     24  H   UNL     1      14.832  24.775   5.410  1.00  0.00    +0.296 HD
ENDBRANCH  21  23
ENDBRANCH  20  21
ENDBRANCH  14  20
ENDBRANCH  13  14
ENDBRANCH   1  13
TORSDOF 15
ENDMDL
MODEL 4
REMARK minimizedAffinity -5.53904247
REMARK minimizedRMSD -1
REMARK SMILES O=C(O)CN(CCN(CC(=O)O)CC(=O)O)CC(=O)O
REMARK SMILES IDX 6 1 5 2 4 3 2 4 1 5 3 6 17 8 18 9 19 10 20 11 7 13 8 14 9 15
REMARK SMILES IDX 10 16 11 17 12 18 13 20 14 21 15 22 16 23
REMARK H PARENT 3 7 20 12 12 19 16 24
ROOT
ATOM      1  C   UNL     1      15.119  20.686   4.346  1.00  0.00    +0.101 C 
ENDROOT
BRANCH   1   2
ATOM      2  N   UNL     1      16.345  19.837   4.322  1.00  0.00    -0.281 NA
BRANCH   2   3
ATOM      3  C   UNL     1      16.602  19.401   5.727  1.00  0.00    +0.208 C 
BRANCH   3   4
ATOM      4  C   UNL     1      17.779  20.143   6.338  1.00  0.00    +0.317 C 
ATOM      5  O   UNL     1      17.734  20.711   7.422  1.00  0.00    -0.251 OA
BRANCH   4   6
ATOM      6  O   UNL     1      18.912  20.027   5.611  1.00  0.00    -0.480 OA
ATOM      7  H   UNL     1      18.749  19.434   4.842  1.00  0.00    +0.296 HD
ENDBRANCH   4   6
ENDBRANCH   3   4
ENDBRANCH   2   3
BRANCH   2   8
ATOM      8  C   UNL     1      16.234  18.696   3.370  1.00  0.00    +0.208 C 
BRANCH   8   9
ATOM      9  C   UNL     1      17.513  18.375   2.607  1.00  0.00    +0.317 C 
ATOM     10  O   UNL     1      18.626  18.418   3.114  1.00  0.00    -0.251 OA
BRANCH   9  11
ATOM     11  O   UNL     1      17.329  18.082   1.300  1.00  0.00    -0.480 OA
ATOM     12  H   UNL     1      16.405  18.074   0.972  1.00  0.00    +0.296 HD
ENDBRANCH   9  11
ENDBRANCH   8   9
ENDBRANCH   2   8
ENDBRANCH   1   2
BRANCH   1  13
ATOM     13  C   UNL     1      15.287  22.220   4.162  1.00  0.00    +0.101 C 
BRANCH  13  14
ATOM     14  N   UNL     1      14.548  23.045   5.158  1.00  0.00    -0.281 NA
BRANCH  14  15
ATOM     15  C   UNL     1      13.143  23.344   4.762  1.00  0.00    +0.208 C 
BRANCH  15  16
ATOM     16  C   UNL     1      12.846  24.825   4.518  1.00  0.00    +0.317 C 
ATOM     17  O   UNL     1      13.064  25.705   5.339  1.00  0.00    -0.251 OA
BRANCH  16  18
ATOM     18  O   UNL     1      12.328  25.092   3.301  1.00  0.00    -0.480 OA
ATOM     19  H   UNL     1      12.286  24.338   2.675  1.00  0.00    +0.296 HD
ENDBRANCH  16  18
ENDBRANCH  15  16
ENDBRANCH  14  15
BRANCH  14  20
ATOM     20  C   UNL     1      14.618  22.387   6.488  1.00  0.00    +0.208 C 
BRANCH  20  21
ATOM     21  C   UNL     1      15.178  23.349   7.529  1.00  0.00    +0.317 C 
ATOM     22  O   UNL     1      14.496  23.916   8.370  1.00  0.00    -0.251 OA
BRANCH  21  23
ATOM     23  O   UNL     1      16.488  23.631   7.338  1.00  0.00    -0.480 OA
ATOM     24  H   UNL     1      16.821  23.200   6.520  1.00  0.00    +0.296 HD
ENDBRANCH  21  23
ENDBRANCH  20  21
ENDBRANCH  14  20
ENDBRANCH  13  14
ENDBRANCH   1  13
TORSDOF 15
ENDMDL
MODEL 5
REMARK minimizedAffinity -5.53228474
REMARK minimizedRMSD -1
REMARK SMILES O=C(O)CN(CCN(CC(=O)O)CC(=O)O)CC(=O)O
REMARK SMILES IDX 6 1 5 2 4 3 2 4 1 5 3 6 17 8 18 9 19 10 20 11 7 13 8 14 9 15
REMARK SMILES IDX 10 16 11 17 12 18 13 20 14 21 15 22 16 23
REMARK H PARENT 3 7 20 12 12 19 16 24
ROOT
ATOM      1  C   UNL     1      12.251  22.736   6.853  1.00  0.00    +0.101 C 
ENDROOT
BRANCH   1   2
ATOM      2  N   UNL     1      13.416  23.631   7.114  1.00  0.00    -0.281 NA
BRANCH   2   3
ATOM      3  C   UNL     1      12.872  25.006   7.323  1.00  0.00    +0.208 C 
BRANCH   3   4
ATOM      4  C   UNL     1      12.425  25.637   6.014  1.00  0.00    +0.317 C 
ATOM      5  O   UNL     1      11.281  26.017   5.801  1.00  0.00    -0.251 OA
BRANCH   4   6
ATOM      6  O   UNL     1      13.442  25.828   5.146  1.00  0.00    -0.480 OA
ATOM      7  H   UNL     1      14.289  25.556   5.566  1.00  0.00    +0.296 HD
ENDBRANCH   4   6
ENDBRANCH   3   4
ENDBRANCH   2   3
BRANCH   2   8
ATOM      8  C   UNL     1      14.258  23.160   8.250  1.00  0.00    +0.208 C 
BRANCH   8   9
ATOM      9  C   UNL     1      15.700  22.833   7.882  1.00  0.00    +0.317 C 
ATOM     10  O   UNL     1      16.164  21.701   7.929  1.00  0.00    -0.251 OA
BRANCH   9  11
ATOM     11  O   UNL     1      16.450  23.905   7.545  1.00  0.00    -0.480 OA
ATOM     12  H   UNL     1      16.002  24.777   7.538  1.00  0.00    +0.296 HD
ENDBRANCH   9  11
ENDBRANCH   8   9
ENDBRANCH   2   8
ENDBRANCH   1   2
BRANCH   1  13
ATOM     13  C   UNL     1      12.269  21.868   5.564  1.00  0.00    +0.101 C 
BRANCH  13  14
ATOM     14  N   UNL     1      12.698  22.596   4.337  1.00  0.00    -0.281 NA
BRANCH  14  15
ATOM     15  C   UNL     1      13.958  22.071   3.740  1.00  0.00    +0.208 C 
BRANCH  15  16
ATOM     16  C   UNL     1      15.240  22.551   4.422  1.00  0.00    +0.317 C 
ATOM     17  O   UNL     1      15.489  23.727   4.649  1.00  0.00    -0.251 OA
BRANCH  16  18
ATOM     18  O   UNL     1      16.085  21.559   4.772  1.00  0.00    -0.480 OA
ATOM     19  H   UNL     1      15.755  20.644   4.642  1.00  0.00    +0.296 HD
ENDBRANCH  16  18
ENDBRANCH  15  16
ENDBRANCH  14  15
BRANCH  14  20
ATOM     20  C   UNL     1      11.583  22.603   3.356  1.00  0.00    +0.208 C 
BRANCH  20  21
ATOM     21  C   UNL     1      11.097  24.026   3.111  1.00  0.00    +0.317 C 
ATOM     22  O   UNL     1       9.919  24.341   3.039  1.00  0.00    -0.251 OA
BRANCH  21  23
ATOM     23  O   UNL     1      12.104  24.888   2.833  1.00  0.00    -0.480 OA
ATOM     24  H   UNL     1      12.964  24.415   2.786  1.00  0.00    +0.296 HD
ENDBRANCH  21  23
ENDBRANCH  20  21
ENDBRANCH  14  20
ENDBRANCH  13  14
ENDBRANCH   1  13
TORSDOF 15
ENDMDL
MODEL 6
REMARK minimizedAffinity -5.49760437
REMARK minimizedRMSD -1
REMARK SMILES O=C(O)CN(CCN(CC(=O)O)CC(=O)O)CC(=O)O
REMARK SMILES IDX 6 1 5 2 4 3 2 4 1 5 3 6 17 8 18 9 19 10 20 11 7 13 8 14 9 15
REMARK SMILES IDX 10 16 11 17 12 18 13 20 14 21 15 22 16 23
REMARK H PARENT 3 7 20 12 12 19 16 24
ROOT
ATOM      1  C   UNL     1      11.979  25.348   6.932  1.00  0.00    +0.101 C 
ENDROOT
BRANCH   1   2
ATOM      2  N   UNL     1      10.875  26.336   7.108  1.00  0.00    -0.281 NA
BRANCH   2   3
ATOM      3  C   UNL     1       9.715  25.841   6.309  1.00  0.00    +0.208 C 
BRANCH   3   4
ATOM      4  C   UNL     1       9.328  26.823   5.215  1.00  0.00    +0.317 C 
ATOM      5  O   UNL     1       8.959  27.969   5.432  1.00  0.00    -0.251 OA
BRANCH   4   6
ATOM      6  O   UNL     1       9.530  26.334   3.972  1.00  0.00    -0.480 OA
ATOM      7  H   UNL     1       9.939  25.440   4.032  1.00  0.00    +0.296 HD
ENDBRANCH   4   6
ENDBRANCH   3   4
ENDBRANCH   2   3
BRANCH   2   8
ATOM      8  C   UNL     1      10.538  26.569   8.540  1.00  0.00    +0.208 C 
BRANCH   8   9
ATOM      9  C   UNL     1       9.540  27.695   8.786  1.00  0.00    +0.317 C 
ATOM     10  O   UNL     1       8.472  27.531   9.361  1.00  0.00    -0.251 OA
BRANCH   9  11
ATOM     11  O   UNL     1       9.906  28.891   8.273  1.00  0.00    -0.480 OA
ATOM     12  H   UNL     1      10.775  28.934   7.822  1.00  0.00    +0.296 HD
ENDBRANCH   9  11
ENDBRANCH   8   9
ENDBRANCH   2   8
ENDBRANCH   1   2
BRANCH   1  13
ATOM     13  C   UNL     1      11.645  23.989   6.256  1.00  0.00    +0.101 C 
BRANCH  13  14
ATOM     14  N   UNL     1      12.528  23.640   5.107  1.00  0.00    -0.281 NA
BRANCH  14  15
ATOM     15  C   UNL     1      13.696  22.797   5.487  1.00  0.00    +0.208 C 
BRANCH  15  16
ATOM     16  C   UNL     1      14.992  23.571   5.735  1.00  0.00    +0.317 C 
ATOM     17  O   UNL     1      15.709  23.399   6.711  1.00  0.00    -0.251 OA
BRANCH  16  18
ATOM     18  O   UNL     1      15.295  24.467   4.772  1.00  0.00    -0.480 OA
ATOM     19  H   UNL     1      14.716  24.462   3.980  1.00  0.00    +0.296 HD
ENDBRANCH  16  18
ENDBRANCH  15  16
ENDBRANCH  14  15
BRANCH  14  20
ATOM     20  C   UNL     1      11.715  23.007   4.039  1.00  0.00    +0.208 C 
BRANCH  20  21
ATOM     21  C   UNL     1      11.326  24.036   2.985  1.00  0.00    +0.317 C 
ATOM     22  O   UNL     1      10.431  23.872   2.168  1.00  0.00    -0.251 OA
BRANCH  21  23
ATOM     23  O   UNL     1      12.168  25.096   2.945  1.00  0.00    -0.480 OA
ATOM     24  H   UNL     1      12.913  24.972   3.573  1.00  0.00    +0.296 HD
ENDBRANCH  21  23
ENDBRANCH  20  21
ENDBRANCH  14  20
ENDBRANCH  13  14
ENDBRANCH   1  13
TORSDOF 15
ENDMDL
MODEL 7
REMARK minimizedAffinity -5.43309784
REMARK minimizedRMSD -1
REMARK SMILES O=C(O)CN(CCN(CC(=O)O)CC(=O)O)CC(=O)O
REMARK SMILES IDX 6 1 5 2 4 3 2 4 1 5 3 6 17 8 18 9 19 10 20 11 7 13 8 14 9 15
REMARK SMILES IDX 10 16 11 17 12 18 13 20 14 21 15 22 16 23
REMARK H PARENT 3 7 20 12 12 19 16 24
ROOT
ATOM      1  C   UNL     1      15.099  20.581   3.919  1.00  0.00    +0.101 C 
ENDROOT
BRANCH   1   2
ATOM      2  N   UNL     1      16.194  19.569   3.899  1.00  0.00    -0.281 NA
BRANCH   2   3
ATOM      3  C   UNL     1      16.429  19.151   5.314  1.00  0.00    +0.208 C 
BRANCH   3   4
ATOM      4  C   UNL     1      17.799  19.588   5.807  1.00  0.00    +0.317 C 
ATOM      5  O   UNL     1      17.989  20.137   6.884  1.00  0.00    -0.251 OA
BRANCH   4   6
ATOM      6  O   UNL     1      18.801  19.215   4.979  1.00  0.00    -0.480 OA
ATOM      7  H   UNL     1      18.433  18.687   4.235  1.00  0.00    +0.296 HD
ENDBRANCH   4   6
ENDBRANCH   3   4
ENDBRANCH   2   3
BRANCH   2   8
ATOM      8  C   UNL     1      15.898  18.421   2.996  1.00  0.00    +0.208 C 
BRANCH   8   9
ATOM      9  C   UNL     1      17.066  17.976   2.125  1.00  0.00    +0.317 C 
ATOM     10  O   UNL     1      17.048  16.956   1.448  1.00  0.00    -0.251 OA
BRANCH   9  11
ATOM     11  O   UNL     1      18.154  18.775   2.193  1.00  0.00    -0.480 OA
ATOM     12  H   UNL     1      18.087  19.570   2.763  1.00  0.00    +0.296 HD
ENDBRANCH   9  11
ENDBRANCH   8   9
ENDBRANCH   2   8
ENDBRANCH   1   2
BRANCH   1  13
ATOM     13  C   UNL     1      15.360  21.928   4.649  1.00  0.00    +0.101 C 
BRANCH  13  14
ATOM     14  N   UNL     1      14.523  22.143   5.863  1.00  0.00    -0.281 NA
BRANCH  14  15
ATOM     15  C   UNL     1      15.243  22.831   6.971  1.00  0.00    +0.208 C 
BRANCH  15  16
ATOM     16  C   UNL     1      15.343  22.027   8.268  1.00  0.00    +0.317 C 
ATOM     17  O   UNL     1      14.377  21.555   8.851  1.00  0.00    -0.251 OA
BRANCH  16  18
ATOM     18  O   UNL     1      16.604  21.865   8.723  1.00  0.00    -0.480 OA
ATOM     19  H   UNL     1      17.320  22.190   8.136  1.00  0.00    +0.296 HD
ENDBRANCH  16  18
ENDBRANCH  15  16
ENDBRANCH  14  15
BRANCH  14  20
ATOM     20  C   UNL     1      13.281  22.861   5.482  1.00  0.00    +0.208 C 
BRANCH  20  21
ATOM     21  C   UNL     1      12.061  21.980   5.722  1.00  0.00    +0.317 C 
ATOM     22  O   UNL     1      11.025  22.060   5.079  1.00  0.00    -0.251 OA
BRANCH  21  23
ATOM     23  O   UNL     1      12.183  21.196   6.820  1.00  0.00    -0.480 OA
ATOM     24  H   UNL     1      13.023  21.387   7.292  1.00  0.00    +0.296 HD
ENDBRANCH  21  23
ENDBRANCH  20  21
ENDBRANCH  14  20
ENDBRANCH  13  14
ENDBRANCH   1  13
TORSDOF 15
ENDMDL
MODEL 8
REMARK minimizedAffinity -5.43203259
REMARK minimizedRMSD -1
REMARK SMILES O=C(O)CN(CCN(CC(=O)O)CC(=O)O)CC(=O)O
REMARK SMILES IDX 6 1 5 2 4 3 2 4 1 5 3 6 17 8 18 9 19 10 20 11 7 13 8 14 9 15
REMARK SMILES IDX 10 16 11 17 12 18 13 20 14 21 15 22 16 23
REMARK H PARENT 3 7 20 12 12 19 16 24
ROOT
ATOM      1  C   UNL     1      10.904  24.123   5.545  1.00  0.00    +0.101 C 
ENDROOT
BRANCH   1   2
ATOM      2  N   UNL     1      11.982  23.616   4.647  1.00  0.00    -0.281 NA
BRANCH   2   3
ATOM      3  C   UNL     1      13.180  23.364   5.502  1.00  0.00    +0.208 C 
BRANCH   3   4
ATOM      4  C   UNL     1      14.417  24.056   4.952  1.00  0.00    +0.317 C 
ATOM      5  O   UNL     1      15.486  23.488   4.767  1.00  0.00    -0.251 OA
BRANCH   4   6
ATOM      6  O   UNL     1      14.188  25.338   4.591  1.00  0.00    -0.480 OA
ATOM      7  H   UNL     1      13.236  25.550   4.719  1.00  0.00    +0.296 HD
ENDBRANCH   4   6
ENDBRANCH   3   4
ENDBRANCH   2   3
BRANCH   2   8
ATOM      8  C   UNL     1      11.562  22.418   3.867  1.00  0.00    +0.208 C 
BRANCH   8   9
ATOM      9  C   UNL     1      10.339  22.628   2.983  1.00  0.00    +0.317 C 
ATOM     10  O   UNL     1      10.233  23.559   2.195  1.00  0.00    -0.251 OA
BRANCH   9  11
ATOM     11  O   UNL     1       9.349  21.728   3.171  1.00  0.00    -0.480 OA
ATOM     12  H   UNL     1       9.513  21.017   3.826  1.00  0.00    +0.296 HD
ENDBRANCH   9  11
ENDBRANCH   8   9
ENDBRANCH   2   8
ENDBRANCH   1   2
BRANCH   1  13
ATOM     13  C   UNL     1      10.664  25.657   5.608  1.00  0.00    +0.101 C 
BRANCH  13  14
ATOM     14  N   UNL     1      10.612  26.216   6.988  1.00  0.00    -0.281 NA
BRANCH  14  15
ATOM     15  C   UNL     1       9.259  26.698   7.387  1.00  0.00    +0.208 C 
BRANCH  15  16
ATOM     16  C   UNL     1       9.204  28.161   7.829  1.00  0.00    +0.317 C 
ATOM     17  O   UNL     1       8.360  28.956   7.440  1.00  0.00    -0.251 OA
BRANCH  16  18
ATOM     18  O   UNL     1      10.168  28.510   8.707  1.00  0.00    -0.480 OA
ATOM     19  H   UNL     1      10.734  27.782   9.039  1.00  0.00    +0.296 HD
ENDBRANCH  16  18
ENDBRANCH  15  16
ENDBRANCH  14  15
BRANCH  14  20
ATOM     20  C   UNL     1      11.144  25.213   7.944  1.00  0.00    +0.208 C 
BRANCH  20  21
ATOM     21  C   UNL     1      12.300  25.801   8.744  1.00  0.00    +0.317 C 
ATOM     22  O   UNL     1      12.159  26.461   9.763  1.00  0.00    -0.251 OA
BRANCH  21  23
ATOM     23  O   UNL     1      13.499  25.645   8.133  1.00  0.00    -0.480 OA
ATOM     24  H   UNL     1      13.388  25.226   7.252  1.00  0.00    +0.296 HD
ENDBRANCH  21  23
ENDBRANCH  20  21
ENDBRANCH  14  20
ENDBRANCH  13  14
ENDBRANCH   1  13
TORSDOF 15
ENDMDL
MODEL 9
REMARK minimizedAffinity -5.40455103
REMARK minimizedRMSD -1
REMARK SMILES O=C(O)CN(CCN(CC(=O)O)CC(=O)O)CC(=O)O
REMARK SMILES IDX 6 1 5 2 4 3 2 4 1 5 3 6 17 8 18 9 19 10 20 11 7 13 8 14 9 15
REMARK SMILES IDX 10 16 11 17 12 18 13 20 14 21 15 22 16 23
REMARK H PARENT 3 7 20 12 12 19 16 24
ROOT
ATOM      1  C   UNL     1      15.474  20.734   4.338  1.00  0.00    +0.101 C 
ENDROOT
BRANCH   1   2
ATOM      2  N   UNL     1      16.688  19.899   4.571  1.00  0.00    -0.281 NA
BRANCH   2   3
ATOM      3  C   UNL     1      16.850  19.769   6.050  1.00  0.00    +0.208 C 
BRANCH   3   4
ATOM      4  C   UNL     1      18.313  19.643   6.445  1.00  0.00    +0.317 C 
ATOM      5  O   UNL     1      18.700  19.023   7.426  1.00  0.00    -0.251 OA
BRANCH   4   6
ATOM      6  O   UNL     1      19.152  20.202   5.544  1.00  0.00    -0.480 OA
ATOM      7  H   UNL     1      18.634  20.541   4.780  1.00  0.00    +0.296 HD
ENDBRANCH   4   6
ENDBRANCH   3   4
ENDBRANCH   2   3
BRANCH   2   8
ATOM      8  C   UNL     1      16.620  18.583   3.876  1.00  0.00    +0.208 C 
BRANCH   8   9
ATOM      9  C   UNL     1      17.774  18.307   2.919  1.00  0.00    +0.317 C 
ATOM     10  O   UNL     1      18.918  18.085   3.294  1.00  0.00    -0.251 OA
BRANCH   9  11
ATOM     11  O   UNL     1      17.446  18.375   1.610  1.00  0.00    -0.480 OA
ATOM     12  H   UNL     1      16.508  18.563   1.396  1.00  0.00    +0.296 HD
ENDBRANCH   9  11
ENDBRANCH   8   9
ENDBRANCH   2   8
ENDBRANCH   1   2
BRANCH   1  13
ATOM     13  C   UNL     1      15.363  22.091   5.088  1.00  0.00    +0.101 C 
BRANCH  13  14
ATOM     14  N   UNL     1      14.053  22.781   4.921  1.00  0.00    -0.281 NA
BRANCH  14  15
ATOM     15  C   UNL     1      12.902  21.849   4.763  1.00  0.00    +0.208 C 
BRANCH  15  16
ATOM     16  C   UNL     1      11.766  22.056   5.766  1.00  0.00    +0.317 C 
ATOM     17  O   UNL     1      10.840  22.836   5.593  1.00  0.00    -0.251 OA
BRANCH  16  18
ATOM     18  O   UNL     1      11.860  21.288   6.873  1.00  0.00    -0.480 OA
ATOM     19  H   UNL     1      12.579  20.621   6.876  1.00  0.00    +0.296 HD
ENDBRANCH  16  18
ENDBRANCH  15  16
ENDBRANCH  14  15
BRANCH  14  20
ATOM     20  C   UNL     1      13.848  23.725   6.049  1.00  0.00    +0.208 C 
BRANCH  20  21
ATOM     21  C   UNL     1      13.441  25.098   5.527  1.00  0.00    +0.317 C 
ATOM     22  O   UNL     1      12.479  25.727   5.944  1.00  0.00    -0.251 OA
BRANCH  21  23
ATOM     23  O   UNL     1      14.163  25.490   4.451  1.00  0.00    -0.480 OA
ATOM     24  H   UNL     1      14.783  24.782   4.172  1.00  0.00    +0.296 HD
ENDBRANCH  21  23
ENDBRANCH  20  21
ENDBRANCH  14  20
ENDBRANCH  13  14
ENDBRANCH   1  13
TORSDOF 15
ENDMDL
