MODEL 1
REMARK minimizedAffinity -6.11602783
REMARK minimizedRMSD -1
REMARK SMILES O=C(O)CN(CCOCCOCCN(CC(=O)O)CC(=O)O)CC(=O)O
REMARK SMILES IDX 9 1 8 2 7 3 6 4 5 5 4 6 2 7 1 8 3 9 23 11 24 12 25 13 26 14
REMARK SMILES IDX 10 16 11 17 12 18 13 19 14 20 15 21 16 22 17 23 18 24 19 26
REMARK SMILES IDX 20 27 21 28 22 29
REMARK H PARENT 3 10 26 15 18 25 22 30
ROOT
ATOM      1  C   UNL     1      12.603  22.617   5.514  1.00  0.00    +0.188 C 
ENDROOT
BRANCH   1   2
ATOM      2  O   UNL     1      13.520  22.738   6.617  1.00  0.00    -0.378 OA
BRANCH   2   3
ATOM      3  C   UNL     1      14.329  21.557   6.774  1.00  0.00    +0.175 C 
BRANCH   3   4
ATOM      4  C   UNL     1      15.494  21.536   5.751  1.00  0.00    +0.114 C 
BRANCH   4   5
ATOM      5  N   UNL     1      15.954  20.199   5.261  1.00  0.00    -0.280 NA
BRANCH   5   6
ATOM      6  C   UNL     1      17.088  19.758   6.152  1.00  0.00    +0.208 C 
BRANCH   6   7
ATOM      7  C   UNL     1      18.409  19.625   5.393  1.00  0.00    +0.317 C 
ATOM      8  O   UNL     1      18.600  18.871   4.455  1.00  0.00    -0.251 OA
BRANCH   7   9
ATOM      9  O   UNL     1      19.384  20.413   5.919  1.00  0.00    -0.480 OA
ATOM     10  H   UNL     1      18.994  20.927   6.660  1.00  0.00    +0.296 HD
ENDBRANCH   7   9
ENDBRANCH   6   7
ENDBRANCH   5   6
BRANCH   5  11
ATOM     11  C   UNL     1      14.872  19.169   5.252  1.00  0.00    +0.208 C 
BRANCH  11  12
ATOM     12  C   UNL     1      15.149  17.993   4.331  1.00  0.00    +0.317 C 
ATOM     13  O   UNL     1      15.550  18.092   3.182  1.00  0.00    -0.251 OA
BRANCH  12  14
ATOM     14  O   UNL     1      14.984  16.800   4.927  1.00  0.00    -0.480 OA
ATOM     15  H   UNL     1      14.615  16.886   5.840  1.00  0.00    +0.296 HD
ENDBRANCH  12  14
ENDBRANCH  11  12
ENDBRANCH   5  11
ENDBRANCH   4   5
ENDBRANCH   3   4
ENDBRANCH   2   3
ENDBRANCH   1   2
BRANCH   1  16
ATOM     16  C   UNL     1      12.806  23.791   4.546  1.00  0.00    +0.188 C 
BRANCH  16  17
ATOM     17  O   UNL     1      11.538  24.322   4.109  1.00  0.00    -0.378 OA
BRANCH  17  18
ATOM     18  C   UNL     1      10.626  24.431   5.224  1.00  0.00    +0.175 C 
BRANCH  18  19
ATOM     19  C   UNL     1      10.232  25.902   5.526  1.00  0.00    +0.114 C 
BRANCH  19  20
ATOM     20  N   UNL     1      10.421  26.315   6.944  1.00  0.00    -0.280 NA
BRANCH  20  21
ATOM     21  C   UNL     1       9.160  26.804   7.554  1.00  0.00    +0.208 C 
BRANCH  21  22
ATOM     22  C   UNL     1       9.204  28.225   8.110  1.00  0.00    +0.317 C 
ATOM     23  O   UNL     1       9.964  28.594   8.995  1.00  0.00    -0.251 OA
BRANCH  22  24
ATOM     24  O   UNL     1       8.272  29.051   7.570  1.00  0.00    -0.480 OA
ATOM     25  H   UNL     1       7.677  28.583   6.938  1.00  0.00    +0.296 HD
ENDBRANCH  22  24
ENDBRANCH  21  22
ENDBRANCH  20  21
BRANCH  20  26
ATOM     26  C   UNL     1      10.955  25.208   7.792  1.00  0.00    +0.208 C 
BRANCH  26  27
ATOM     27  C   UNL     1      12.199  25.666   8.548  1.00  0.00    +0.317 C 
ATOM     28  O   UNL     1      12.193  26.202   9.644  1.00  0.00    -0.251 OA
BRANCH  27  29
ATOM     29  O   UNL     1      13.338  25.447   7.836  1.00  0.00    -0.480 OA
ATOM     30  H   UNL     1      13.074  25.006   6.996  1.00  0.00    +0.296 HD
ENDBRANCH  27  29
ENDBRANCH  26  27
ENDBRANCH  20  26
ENDBRANCH  19  20
ENDBRANCH  18  19
ENDBRANCH  17  18
ENDBRANCH  16  17
ENDBRANCH   1  16
TORSDOF 21
ENDMDL
MODEL 2
REMARK minimizedAffinity -6.0826335
REMARK minimizedRMSD -1
REMARK SMILES O=C(O)CN(CCOCCOCCN(CC(=O)O)CC(=O)O)CC(=O)O
REMARK SMILES IDX 9 1 8 2 7 3 6 4 5 5 4 6 2 7 1 8 3 9 23 11 24 12 25 13 26 14
REMARK SMILES IDX 10 16 11 17 12 18 13 19 14 20 15 21 16 22 17 23 18 24 19 26
REMARK SMILES IDX 20 27 21 28 22 29
REMARK H PARENT 3 10 26 15 18 25 22 30
ROOT
ATOM      1  C   UNL     1      13.791  21.924   3.565  1.00  0.00    +0.188 C 
ENDROOT
BRANCH   1   2
ATOM      2  O   UNL     1      15.052  21.850   4.255  1.00  0.00    -0.378 OA
BRANCH   2   3
ATOM      3  C   UNL     1      15.399  20.495   4.595  1.00  0.00    +0.175 C 
BRANCH   3   4
ATOM      4  C   UNL     1      15.477  20.305   6.132  1.00  0.00    +0.114 C 
BRANCH   4   5
ATOM      5  N   UNL     1      16.570  21.021   6.859  1.00  0.00    -0.280 NA
BRANCH   5   6
ATOM      6  C   UNL     1      15.946  21.704   8.051  1.00  0.00    +0.208 C 
BRANCH   6   7
ATOM      7  C   UNL     1      15.379  23.082   7.703  1.00  0.00    +0.317 C 
ATOM      8  O   UNL     1      14.468  23.631   8.298  1.00  0.00    -0.251 OA
BRANCH   7   9
ATOM      9  O   UNL     1      15.973  23.617   6.603  1.00  0.00    -0.480 OA
ATOM     10  H   UNL     1      16.673  22.997   6.302  1.00  0.00    +0.296 HD
ENDBRANCH   7   9
ENDBRANCH   6   7
ENDBRANCH   5   6
BRANCH   5  11
ATOM     11  C   UNL     1      17.676  20.120   7.301  1.00  0.00    +0.208 C 
BRANCH  11  12
ATOM     12  C   UNL     1      18.843  20.054   6.330  1.00  0.00    +0.317 C 
ATOM     13  O   UNL     1      18.781  19.588   5.203  1.00  0.00    -0.251 OA
BRANCH  12  14
ATOM     14  O   UNL     1      19.959  20.637   6.799  1.00  0.00    -0.480 OA
ATOM     15  H   UNL     1      19.862  20.927   7.740  1.00  0.00    +0.296 HD
ENDBRANCH  12  14
ENDBRANCH  11  12
ENDBRANCH   5  11
ENDBRANCH   4   5
ENDBRANCH   3   4
ENDBRANCH   2   3
ENDBRANCH   1   2
BRANCH   1  16
ATOM     16  C   UNL     1      12.963  23.086   4.128  1.00  0.00    +0.188 C 
BRANCH  16  17
ATOM     17  O   UNL     1      13.819  24.098   4.699  1.00  0.00    -0.378 OA
BRANCH  17  18
ATOM     18  C   UNL     1      13.028  25.127   5.333  1.00  0.00    +0.175 C 
BRANCH  18  19
ATOM     19  C   UNL     1      11.503  24.906   5.140  1.00  0.00    +0.114 C 
BRANCH  19  20
ATOM     20  N   UNL     1      10.640  25.885   5.856  1.00  0.00    -0.280 NA
BRANCH  20  21
ATOM     21  C   UNL     1       9.381  26.159   5.121  1.00  0.00    +0.208 C 
BRANCH  21  22
ATOM     22  C   UNL     1       8.895  27.606   5.160  1.00  0.00    +0.317 C 
ATOM     23  O   UNL     1       8.450  28.155   6.159  1.00  0.00    -0.251 OA
BRANCH  22  24
ATOM     24  O   UNL     1       8.944  28.230   3.956  1.00  0.00    -0.480 OA
ATOM     25  H   UNL     1       9.239  27.628   3.233  1.00  0.00    +0.296 HD
ENDBRANCH  22  24
ENDBRANCH  21  22
ENDBRANCH  20  21
BRANCH  20  26
ATOM     26  C   UNL     1      10.290  25.432   7.235  1.00  0.00    +0.208 C 
BRANCH  26  27
ATOM     27  C   UNL     1      10.938  26.341   8.277  1.00  0.00    +0.317 C 
ATOM     28  O   UNL     1      12.000  26.120   8.834  1.00  0.00    -0.251 OA
BRANCH  27  29
ATOM     29  O   UNL     1      10.168  27.427   8.555  1.00  0.00    -0.480 OA
ATOM     30  H   UNL     1       9.372  27.374   7.976  1.00  0.00    +0.296 HD
ENDBRANCH  27  29
ENDBRANCH  26  27
ENDBRANCH  20  26
ENDBRANCH  19  20
ENDBRANCH  18  19
ENDBRANCH  17  18
ENDBRANCH  16  17
ENDBRANCH   1  16
TORSDOF 21
ENDMDL
MODEL 3
REMARK minimizedAffinity -5.95230103
REMARK minimizedRMSD -1
REMARK SMILES O=C(O)CN(CCOCCOCCN(CC(=O)O)CC(=O)O)CC(=O)O
REMARK SMILES IDX 9 1 8 2 7 3 6 4 5 5 4 6 2 7 1 8 3 9 23 11 24 12 25 13 26 14
REMARK SMILES IDX 10 16 11 17 12 18 13 19 14 20 15 21 16 22 17 23 18 24 19 26
REMARK SMILES IDX 20 27 21 28 22 29
REMARK H PARENT 3 10 26 15 18 25 22 30
ROOT
ATOM      1  C   UNL     1      14.754  23.425   5.577  1.00  0.00    +0.188 C 
ENDROOT
BRANCH   1   2
ATOM      2  O   UNL     1      15.141  22.732   4.376  1.00  0.00    -0.378 OA
BRANCH   2   3
ATOM      3  C   UNL     1      14.197  21.703   4.024  1.00  0.00    +0.175 C 
BRANCH   3   4
ATOM      4  C   UNL     1      14.904  20.508   3.333  1.00  0.00    +0.114 C 
BRANCH   4   5
ATOM      5  N   UNL     1      15.951  19.783   4.118  1.00  0.00    -0.280 NA
BRANCH   5   6
ATOM      6  C   UNL     1      15.445  19.654   5.533  1.00  0.00    +0.208 C 
BRANCH   6   7
ATOM      7  C   UNL     1      16.426  20.223   6.559  1.00  0.00    +0.317 C 
ATOM      8  O   UNL     1      16.157  20.464   7.722  1.00  0.00    -0.251 OA
BRANCH   7   9
ATOM      9  O   UNL     1      17.642  20.489   6.010  1.00  0.00    -0.480 OA
ATOM     10  H   UNL     1      17.619  20.211   5.068  1.00  0.00    +0.296 HD
ENDBRANCH   7   9
ENDBRANCH   6   7
ENDBRANCH   5   6
BRANCH   5  11
ATOM     11  C   UNL     1      16.280  18.436   3.562  1.00  0.00    +0.208 C 
BRANCH  11  12
ATOM     12  C   UNL     1      17.560  18.402   2.744  1.00  0.00    +0.317 C 
ATOM     13  O   UNL     1      18.684  18.361   3.218  1.00  0.00    -0.251 OA
BRANCH  12  14
ATOM     14  O   UNL     1      17.343  18.343   1.419  1.00  0.00    -0.480 OA
ATOM     15  H   UNL     1      16.384  18.429   1.193  1.00  0.00    +0.296 HD
ENDBRANCH  12  14
ENDBRANCH  11  12
ENDBRANCH   5  11
ENDBRANCH   4   5
ENDBRANCH   3   4
ENDBRANCH   2   3
ENDBRANCH   1   2
BRANCH   1  16
ATOM     16  C   UNL     1      13.348  22.978   5.998  1.00  0.00    +0.188 C 
BRANCH  16  17
ATOM     17  O   UNL     1      12.404  24.062   5.870  1.00  0.00    -0.378 OA
BRANCH  17  18
ATOM     18  C   UNL     1      11.615  24.188   7.073  1.00  0.00    +0.175 C 
BRANCH  18  19
ATOM     19  C   UNL     1      11.666  25.620   7.669  1.00  0.00    +0.114 C 
BRANCH  19  20
ATOM     20  N   UNL     1      10.436  26.428   7.448  1.00  0.00    -0.280 NA
BRANCH  20  21
ATOM     21  C   UNL     1       9.481  25.751   6.537  1.00  0.00    +0.208 C 
BRANCH  21  22
ATOM     22  C   UNL     1       9.431  26.294   5.111  1.00  0.00    +0.317 C 
ATOM     23  O   UNL     1       9.597  25.612   4.110  1.00  0.00    -0.251 OA
BRANCH  22  24
ATOM     24  O   UNL     1       9.237  27.636   5.046  1.00  0.00    -0.480 OA
ATOM     25  H   UNL     1       9.213  28.055   5.938  1.00  0.00    +0.296 HD
ENDBRANCH  22  24
ENDBRANCH  21  22
ENDBRANCH  20  21
BRANCH  20  26
ATOM     26  C   UNL     1       9.726  26.742   8.724  1.00  0.00    +0.208 C 
BRANCH  26  27
ATOM     27  C   UNL     1       9.039  28.102   8.633  1.00  0.00    +0.317 C 
ATOM     28  O   UNL     1       9.245  28.933   7.764  1.00  0.00    -0.251 OA
BRANCH  27  29
ATOM     29  O   UNL     1       8.183  28.311   9.669  1.00  0.00    -0.480 OA
ATOM     30  H   UNL     1       8.195  27.497  10.224  1.00  0.00    +0.296 HD
ENDBRANCH  27  29
ENDBRANCH  26  27
ENDBRANCH  20  26
ENDBRANCH  19  20
ENDBRANCH  18  19
ENDBRANCH  17  18
ENDBRANCH  16  17
ENDBRANCH   1  16
TORSDOF 21
ENDMDL
MODEL 4
REMARK minimizedAffinity -5.93900204
REMARK minimizedRMSD -1
REMARK SMILES O=C(O)CN(CCOCCOCCN(CC(=O)O)CC(=O)O)CC(=O)O
REMARK SMILES IDX 9 1 8 2 7 3 6 4 5 5 4 6 2 7 1 8 3 9 23 11 24 12 25 13 26 14
REMARK SMILES IDX 10 16 11 17 12 18 13 19 14 20 15 21 16 22 17 23 18 24 19 26
REMARK SMILES IDX 20 27 21 28 22 29
REMARK H PARENT 3 10 26 15 18 25 22 30
ROOT
ATOM      1  C   UNL     1      14.932  23.319   4.845  1.00  0.00    +0.188 C 
ENDROOT
BRANCH   1   2
ATOM      2  O   UNL     1      14.042  24.440   4.996  1.00  0.00    -0.378 OA
BRANCH   2   3
ATOM      3  C   UNL     1      13.019  24.185   5.976  1.00  0.00    +0.175 C 
BRANCH   3   4
ATOM      4  C   UNL     1      12.410  25.509   6.508  1.00  0.00    +0.114 C 
BRANCH   4   5
ATOM      5  N   UNL     1      10.980  25.792   6.169  1.00  0.00    -0.280 NA
BRANCH   5   6
ATOM      6  C   UNL     1      10.379  24.511   5.647  1.00  0.00    +0.208 C 
BRANCH   6   7
ATOM      7  C   UNL     1       9.839  24.657   4.224  1.00  0.00    +0.317 C 
ATOM      8  O   UNL     1       9.463  23.733   3.524  1.00  0.00    -0.251 OA
BRANCH   7   9
ATOM      9  O   UNL     1       9.875  25.946   3.793  1.00  0.00    -0.480 OA
ATOM     10  H   UNL     1      10.212  26.504   4.527  1.00  0.00    +0.296 HD
ENDBRANCH   7   9
ENDBRANCH   6   7
ENDBRANCH   5   6
BRANCH   5  11
ATOM     11  C   UNL     1      10.188  26.302   7.328  1.00  0.00    +0.208 C 
BRANCH  11  12
ATOM     12  C   UNL     1       9.522  27.644   7.078  1.00  0.00    +0.317 C 
ATOM     13  O   UNL     1       9.522  28.575   7.868  1.00  0.00    -0.251 OA
BRANCH  12  14
ATOM     14  O   UNL     1       8.986  27.752   5.850  1.00  0.00    -0.480 OA
ATOM     15  H   UNL     1       9.029  26.901   5.348  1.00  0.00    +0.296 HD
ENDBRANCH  12  14
ENDBRANCH  11  12
ENDBRANCH   5  11
ENDBRANCH   4   5
ENDBRANCH   3   4
ENDBRANCH   2   3
ENDBRANCH   1   2
BRANCH   1  16
ATOM     16  C   UNL     1      14.129  22.080   4.426  1.00  0.00    +0.188 C 
BRANCH  16  17
ATOM     17  O   UNL     1      14.497  21.654   3.097  1.00  0.00    -0.378 OA
BRANCH  17  18
ATOM     18  C   UNL     1      14.913  20.270   3.109  1.00  0.00    +0.175 C 
BRANCH  18  19
ATOM     19  C   UNL     1      15.261  19.768   4.536  1.00  0.00    +0.114 C 
BRANCH  19  20
ATOM     20  N   UNL     1      16.711  19.538   4.776  1.00  0.00    -0.280 NA
BRANCH  20  21
ATOM     21  C   UNL     1      17.121  19.943   6.143  1.00  0.00    +0.208 C 
BRANCH  21  22
ATOM     22  C   UNL     1      18.583  19.682   6.499  1.00  0.00    +0.317 C 
ATOM     23  O   UNL     1      18.949  18.922   7.385  1.00  0.00    -0.251 OA
BRANCH  22  24
ATOM     24  O   UNL     1      19.461  20.420   5.773  1.00  0.00    -0.480 OA
ATOM     25  H   UNL     1      19.008  21.050   5.164  1.00  0.00    +0.296 HD
ENDBRANCH  22  24
ENDBRANCH  21  22
ENDBRANCH  20  21
BRANCH  20  26
ATOM     26  C   UNL     1      17.102  18.111   4.571  1.00  0.00    +0.208 C 
BRANCH  26  27
ATOM     27  C   UNL     1      18.158  17.998   3.475  1.00  0.00    +0.317 C 
ATOM     28  O   UNL     1      18.181  18.666   2.455  1.00  0.00    -0.251 OA
BRANCH  27  29
ATOM     29  O   UNL     1      19.067  17.022   3.742  1.00  0.00    -0.480 OA
ATOM     30  H   UNL     1      18.831  16.637   4.617  1.00  0.00    +0.296 HD
ENDBRANCH  27  29
ENDBRANCH  26  27
ENDBRANCH  20  26
ENDBRANCH  19  20
ENDBRANCH  18  19
ENDBRANCH  17  18
ENDBRANCH  16  17
ENDBRANCH   1  16
TORSDOF 21
ENDMDL
MODEL 5
REMARK minimizedAffinity -5.83443832
REMARK minimizedRMSD -1
REMARK SMILES O=C(O)CN(CCOCCOCCN(CC(=O)O)CC(=O)O)CC(=O)O
REMARK SMILES IDX 9 1 8 2 7 3 6 4 5 5 4 6 2 7 1 8 3 9 23 11 24 12 25 13 26 14
REMARK SMILES IDX 10 16 11 17 12 18 13 19 14 20 15 21 16 22 17 23 18 24 19 26
REMARK SMILES IDX 20 27 21 28 22 29
REMARK H PARENT 3 10 26 15 18 25 22 30
ROOT
ATOM      1  C   UNL     1      14.293  21.935   6.827  1.00  0.00    +0.188 C 
ENDROOT
BRANCH   1   2
ATOM      2  O   UNL     1      15.175  22.654   5.946  1.00  0.00    -0.378 OA
BRANCH   2   3
ATOM      3  C   UNL     1      15.352  21.971   4.691  1.00  0.00    +0.175 C 
BRANCH   3   4
ATOM      4  C   UNL     1      15.319  20.432   4.881  1.00  0.00    +0.114 C 
BRANCH   4   5
ATOM      5  N   UNL     1      16.580  19.678   4.601  1.00  0.00    -0.280 NA
BRANCH   5   6
ATOM      6  C   UNL     1      17.056  19.096   5.908  1.00  0.00    +0.208 C 
BRANCH   6   7
ATOM      7  C   UNL     1      18.272  19.836   6.469  1.00  0.00    +0.317 C 
ATOM      8  O   UNL     1      18.417  20.152   7.637  1.00  0.00    -0.251 OA
BRANCH   7   9
ATOM      9  O   UNL     1      19.166  20.159   5.497  1.00  0.00    -0.480 OA
ATOM     10  H   UNL     1      18.835  19.800   4.646  1.00  0.00    +0.296 HD
ENDBRANCH   7   9
ENDBRANCH   6   7
ENDBRANCH   5   6
BRANCH   5  11
ATOM     11  C   UNL     1      16.409  18.596   3.585  1.00  0.00    +0.208 C 
BRANCH  11  12
ATOM     12  C   UNL     1      17.666  18.298   2.784  1.00  0.00    +0.317 C 
ATOM     13  O   UNL     1      18.768  18.102   3.273  1.00  0.00    -0.251 OA
BRANCH  12  14
ATOM     14  O   UNL     1      17.442  18.189   1.464  1.00  0.00    -0.480 OA
ATOM     15  H   UNL     1      16.511  18.418   1.223  1.00  0.00    +0.296 HD
ENDBRANCH  12  14
ENDBRANCH  11  12
ENDBRANCH   5  11
ENDBRANCH   4   5
ENDBRANCH   3   4
ENDBRANCH   2   3
ENDBRANCH   1   2
BRANCH   1  16
ATOM     16  C   UNL     1      13.082  22.814   7.171  1.00  0.00    +0.188 C 
BRANCH  16  17
ATOM     17  O   UNL     1      13.499  24.036   7.813  1.00  0.00    -0.378 OA
BRANCH  17  18
ATOM     18  C   UNL     1      12.558  25.096   7.537  1.00  0.00    +0.175 C 
BRANCH  18  19
ATOM     19  C   UNL     1      12.587  25.543   6.051  1.00  0.00    +0.114 C 
BRANCH  19  20
ATOM     20  N   UNL     1      11.246  25.700   5.424  1.00  0.00    -0.280 NA
BRANCH  20  21
ATOM     21  C   UNL     1      10.804  24.462   4.736  1.00  0.00    +0.208 C 
BRANCH  21  22
ATOM     22  C   UNL     1      11.647  24.038   3.535  1.00  0.00    +0.317 C 
ATOM     23  O   UNL     1      12.027  22.893   3.333  1.00  0.00    -0.251 OA
BRANCH  22  24
ATOM     24  O   UNL     1      11.995  25.068   2.722  1.00  0.00    -0.480 OA
ATOM     25  H   UNL     1      11.689  25.939   3.069  1.00  0.00    +0.296 HD
ENDBRANCH  22  24
ENDBRANCH  21  22
ENDBRANCH  20  21
BRANCH  20  26
ATOM     26  C   UNL     1      10.197  26.086   6.416  1.00  0.00    +0.208 C 
BRANCH  26  27
ATOM     27  C   UNL     1       9.037  26.791   5.719  1.00  0.00    +0.317 C 
ATOM     28  O   UNL     1       9.133  27.818   5.067  1.00  0.00    -0.251 OA
BRANCH  27  29
ATOM     29  O   UNL     1       7.851  26.164   5.943  1.00  0.00    -0.480 OA
ATOM     30  H   UNL     1       8.042  25.368   6.491  1.00  0.00    +0.296 HD
ENDBRANCH  27  29
ENDBRANCH  26  27
ENDBRANCH  20  26
ENDBRANCH  19  20
ENDBRANCH  18  19
ENDBRANCH  17  18
ENDBRANCH  16  17
ENDBRANCH   1  16
TORSDOF 21
ENDMDL
MODEL 6
REMARK minimizedAffinity -5.79840565
REMARK minimizedRMSD -1
REMARK SMILES O=C(O)CN(CCOCCOCCN(CC(=O)O)CC(=O)O)CC(=O)O
REMARK SMILES IDX 9 1 8 2 7 3 6 4 5 5 4 6 2 7 1 8 3 9 23 11 24 12 25 13 26 14
REMARK SMILES IDX 10 16 11 17 12 18 13 19 14 20 15 21 16 22 17 23 18 24 19 26
REMARK SMILES IDX 20 27 21 28 22 29
REMARK H PARENT 3 10 26 15 18 25 22 30
ROOT
ATOM      1  C   UNL     1      11.466  23.617   3.199  1.00  0.00    +0.188 C 
ENDROOT
BRANCH   1   2
ATOM      2  O   UNL     1      10.676  24.799   3.422  1.00  0.00    -0.378 OA
BRANCH   2   3
ATOM      3  C   UNL     1       9.723  24.616   4.486  1.00  0.00    +0.175 C 
BRANCH   3   4
ATOM      4  C   UNL     1       9.393  25.962   5.180  1.00  0.00    +0.114 C 
BRANCH   4   5
ATOM      5  N   UNL     1      10.105  26.268   6.460  1.00  0.00    -0.280 NA
BRANCH   5   6
ATOM      6  C   UNL     1       9.066  26.716   7.457  1.00  0.00    +0.208 C 
BRANCH   6   7
ATOM      7  C   UNL     1       9.420  28.054   8.108  1.00  0.00    +0.317 C 
ATOM      8  O   UNL     1      10.323  28.222   8.909  1.00  0.00    -0.251 OA
BRANCH   7   9
ATOM      9  O   UNL     1       8.571  29.047   7.732  1.00  0.00    -0.480 OA
ATOM     10  H   UNL     1       7.934  28.675   7.084  1.00  0.00    +0.296 HD
ENDBRANCH   7   9
ENDBRANCH   6   7
ENDBRANCH   5   6
BRANCH   5  11
ATOM     11  C   UNL     1      10.874  25.108   7.001  1.00  0.00    +0.208 C 
BRANCH  11  12
ATOM     12  C   UNL     1      12.353  25.388   7.204  1.00  0.00    +0.317 C 
ATOM     13  O   UNL     1      12.871  25.630   8.283  1.00  0.00    -0.251 OA
BRANCH  12  14
ATOM     14  O   UNL     1      13.076  25.269   6.077  1.00  0.00    -0.480 OA
ATOM     15  H   UNL     1      12.508  25.113   5.283  1.00  0.00    +0.296 HD
ENDBRANCH  12  14
ENDBRANCH  11  12
ENDBRANCH   5  11
ENDBRANCH   4   5
ENDBRANCH   3   4
ENDBRANCH   2   3
ENDBRANCH   1   2
BRANCH   1  16
ATOM     16  C   UNL     1      11.252  22.631   4.356  1.00  0.00    +0.188 C 
BRANCH  16  17
ATOM     17  O   UNL     1      12.481  22.414   5.080  1.00  0.00    -0.378 OA
BRANCH  17  18
ATOM     18  C   UNL     1      13.570  22.170   4.163  1.00  0.00    +0.175 C 
BRANCH  18  19
ATOM     19  C   UNL     1      14.953  22.510   4.780  1.00  0.00    +0.114 C 
BRANCH  19  20
ATOM     20  N   UNL     1      15.621  21.371   5.467  1.00  0.00    -0.280 NA
BRANCH  20  21
ATOM     21  C   UNL     1      15.932  21.681   6.884  1.00  0.00    +0.208 C 
BRANCH  21  22
ATOM     22  C   UNL     1      14.930  22.584   7.598  1.00  0.00    +0.317 C 
ATOM     23  O   UNL     1      13.836  22.214   8.001  1.00  0.00    -0.251 OA
BRANCH  22  24
ATOM     24  O   UNL     1      15.337  23.875   7.702  1.00  0.00    -0.480 OA
ATOM     25  H   UNL     1      16.199  24.034   7.250  1.00  0.00    +0.296 HD
ENDBRANCH  22  24
ENDBRANCH  21  22
ENDBRANCH  20  21
BRANCH  20  26
ATOM     26  C   UNL     1      14.801  20.124   5.428  1.00  0.00    +0.208 C 
BRANCH  26  27
ATOM     27  C   UNL     1      15.509  19.044   4.613  1.00  0.00    +0.317 C 
ATOM     28  O   UNL     1      16.273  19.256   3.686  1.00  0.00    -0.251 OA
BRANCH  27  29
ATOM     29  O   UNL     1      15.158  17.792   5.012  1.00  0.00    -0.480 OA
ATOM     30  H   UNL     1      14.538  17.893   5.771  1.00  0.00    +0.296 HD
ENDBRANCH  27  29
ENDBRANCH  26  27
ENDBRANCH  20  26
ENDBRANCH  19  20
ENDBRANCH  18  19
ENDBRANCH  17  18
ENDBRANCH  16  17
ENDBRANCH   1  16
TORSDOF 21
ENDMDL
MODEL 7
REMARK minimizedAffinity -5.7966795
REMARK minimizedRMSD -1
REMARK SMILES O=C(O)CN(CCOCCOCCN(CC(=O)O)CC(=O)O)CC(=O)O
REMARK SMILES IDX 9 1 8 2 7 3 6 4 5 5 4 6 2 7 1 8 3 9 23 11 24 12 25 13 26 14
REMARK SMILES IDX 10 16 11 17 12 18 13 19 14 20 15 21 16 22 17 23 18 24 19 26
REMARK SMILES IDX 20 27 21 28 22 29
REMARK H PARENT 3 10 26 15 18 25 22 30
ROOT
ATOM      1  C   UNL     1      15.981  21.150   9.242  1.00  0.00    +0.188 C 
ENDROOT
BRANCH   1   2
ATOM      2  O   UNL     1      16.174  22.549   9.519  1.00  0.00    -0.378 OA
BRANCH   2   3
ATOM      3  C   UNL     1      15.824  23.372   8.391  1.00  0.00    +0.175 C 
BRANCH   3   4
ATOM      4  C   UNL     1      14.288  23.402   8.175  1.00  0.00    +0.114 C 
BRANCH   4   5
ATOM      5  N   UNL     1      13.789  23.887   6.851  1.00  0.00    -0.280 NA
BRANCH   5   6
ATOM      6  C   UNL     1      13.991  22.769   5.858  1.00  0.00    +0.208 C 
BRANCH   6   7
ATOM      7  C   UNL     1      14.961  23.151   4.739  1.00  0.00    +0.317 C 
ATOM      8  O   UNL     1      15.376  22.387   3.885  1.00  0.00    -0.251 OA
BRANCH   7   9
ATOM      9  O   UNL     1      15.362  24.447   4.830  1.00  0.00    -0.480 OA
ATOM     10  H   UNL     1      14.895  24.858   5.590  1.00  0.00    +0.296 HD
ENDBRANCH   7   9
ENDBRANCH   6   7
ENDBRANCH   5   6
BRANCH   5  11
ATOM     11  C   UNL     1      12.355  24.304   6.876  1.00  0.00    +0.208 C 
BRANCH  11  12
ATOM     12  C   UNL     1      11.873  24.933   5.579  1.00  0.00    +0.317 C 
ATOM     13  O   UNL     1      10.810  24.674   5.037  1.00  0.00    -0.251 OA
BRANCH  12  14
ATOM     14  O   UNL     1      12.702  25.878   5.107  1.00  0.00    -0.480 OA
ATOM     15  H   UNL     1      13.538  25.939   5.632  1.00  0.00    +0.296 HD
ENDBRANCH  12  14
ENDBRANCH  11  12
ENDBRANCH   5  11
ENDBRANCH   4   5
ENDBRANCH   3   4
ENDBRANCH   2   3
ENDBRANCH   1   2
BRANCH   1  16
ATOM     16  C   UNL     1      17.336  20.431   9.258  1.00  0.00    +0.188 C 
BRANCH  16  17
ATOM     17  O   UNL     1      18.081  20.711   8.054  1.00  0.00    -0.378 OA
BRANCH  17  18
ATOM     18  C   UNL     1      17.869  19.669   7.077  1.00  0.00    +0.175 C 
BRANCH  18  19
ATOM     19  C   UNL     1      16.834  20.074   5.992  1.00  0.00    +0.114 C 
BRANCH  19  20
ATOM     20  N   UNL     1      16.799  19.178   4.804  1.00  0.00    -0.280 NA
BRANCH  20  21
ATOM     21  C   UNL     1      17.638  17.970   4.992  1.00  0.00    +0.208 C 
BRANCH  21  22
ATOM     22  C   UNL     1      18.608  17.657   3.855  1.00  0.00    +0.317 C 
ATOM     23  O   UNL     1      18.634  18.257   2.789  1.00  0.00    -0.251 OA
BRANCH  22  24
ATOM     24  O   UNL     1      19.419  16.598   4.107  1.00  0.00    -0.480 OA
ATOM     25  H   UNL     1      19.215  16.166   4.969  1.00  0.00    +0.296 HD
ENDBRANCH  22  24
ENDBRANCH  21  22
ENDBRANCH  20  21
BRANCH  20  26
ATOM     26  C   UNL     1      15.412  18.739   4.466  1.00  0.00    +0.208 C 
BRANCH  26  27
ATOM     27  C   UNL     1      15.178  18.820   2.959  1.00  0.00    +0.317 C 
ATOM     28  O   UNL     1      15.382  17.912   2.171  1.00  0.00    -0.251 OA
BRANCH  27  29
ATOM     29  O   UNL     1      14.749  20.053   2.576  1.00  0.00    -0.480 OA
ATOM     30  H   UNL     1      14.663  20.597   3.392  1.00  0.00    +0.296 HD
ENDBRANCH  27  29
ENDBRANCH  26  27
ENDBRANCH  20  26
ENDBRANCH  19  20
ENDBRANCH  18  19
ENDBRANCH  17  18
ENDBRANCH  16  17
ENDBRANCH   1  16
TORSDOF 21
ENDMDL
MODEL 8
REMARK minimizedAffinity -5.77981901
REMARK minimizedRMSD -1
REMARK SMILES O=C(O)CN(CCOCCOCCN(CC(=O)O)CC(=O)O)CC(=O)O
REMARK SMILES IDX 9 1 8 2 7 3 6 4 5 5 4 6 2 7 1 8 3 9 23 11 24 12 25 13 26 14
REMARK SMILES IDX 10 16 11 17 12 18 13 19 14 20 15 21 16 22 17 23 18 24 19 26
REMARK SMILES IDX 20 27 21 28 22 29
REMARK H PARENT 3 10 26 15 18 25 22 30
ROOT
ATOM      1  C   UNL     1      11.702  22.398   5.109  1.00  0.00    +0.188 C 
ENDROOT
BRANCH   1   2
ATOM      2  O   UNL     1      12.205  23.731   4.904  1.00  0.00    -0.378 OA
BRANCH   2   3
ATOM      3  C   UNL     1      11.680  24.657   5.874  1.00  0.00    +0.175 C 
BRANCH   3   4
ATOM      4  C   UNL     1      10.148  24.833   5.710  1.00  0.00    +0.114 C 
BRANCH   4   5
ATOM      5  N   UNL     1       9.463  25.788   6.635  1.00  0.00    -0.280 NA
BRANCH   5   6
ATOM      6  C   UNL     1      10.320  25.911   7.870  1.00  0.00    +0.208 C 
BRANCH   6   7
ATOM      7  C   UNL     1       9.569  25.518   9.143  1.00  0.00    +0.317 C 
ATOM      8  O   UNL     1      10.067  25.448  10.253  1.00  0.00    -0.251 OA
BRANCH   7   9
ATOM      9  O   UNL     1       8.272  25.194   8.892  1.00  0.00    -0.480 OA
ATOM     10  H   UNL     1       8.104  25.328   7.934  1.00  0.00    +0.296 HD
ENDBRANCH   7   9
ENDBRANCH   6   7
ENDBRANCH   5   6
BRANCH   5  11
ATOM     11  C   UNL     1       9.232  27.134   6.030  1.00  0.00    +0.208 C 
BRANCH  11  12
ATOM     12  C   UNL     1       8.328  28.034   6.855  1.00  0.00    +0.317 C 
ATOM     13  O   UNL     1       8.724  28.886   7.635  1.00  0.00    -0.251 OA
BRANCH  12  14
ATOM     14  O   UNL     1       7.022  27.862   6.591  1.00  0.00    -0.480 OA
ATOM     15  H   UNL     1       6.862  27.108   5.971  1.00  0.00    +0.296 HD
ENDBRANCH  12  14
ENDBRANCH  11  12
ENDBRANCH   5  11
ENDBRANCH   4   5
ENDBRANCH   3   4
ENDBRANCH   2   3
ENDBRANCH   1   2
BRANCH   1  16
ATOM     16  C   UNL     1      12.504  21.713   6.224  1.00  0.00    +0.188 C 
BRANCH  16  17
ATOM     17  O   UNL     1      13.909  22.021   6.111  1.00  0.00    -0.378 OA
BRANCH  17  18
ATOM     18  C   UNL     1      14.667  20.821   5.839  1.00  0.00    +0.175 C 
BRANCH  18  19
ATOM     19  C   UNL     1      15.661  21.003   4.661  1.00  0.00    +0.114 C 
BRANCH  19  20
ATOM     20  N   UNL     1      16.734  19.973   4.591  1.00  0.00    -0.280 NA
BRANCH  20  21
ATOM     21  C   UNL     1      17.029  19.385   5.921  1.00  0.00    +0.208 C 
BRANCH  21  22
ATOM     22  C   UNL     1      18.435  19.638   6.458  1.00  0.00    +0.317 C 
ATOM     23  O   UNL     1      18.784  19.405   7.607  1.00  0.00    -0.251 OA
BRANCH  22  24
ATOM     24  O   UNL     1      19.271  20.207   5.552  1.00  0.00    -0.480 OA
ATOM     25  H   UNL     1      18.816  20.416   4.702  1.00  0.00    +0.296 HD
ENDBRANCH  22  24
ENDBRANCH  21  22
ENDBRANCH  20  21
BRANCH  20  26
ATOM     26  C   UNL     1      16.397  18.864   3.651  1.00  0.00    +0.208 C 
BRANCH  26  27
ATOM     27  C   UNL     1      17.614  18.485   2.811  1.00  0.00    +0.317 C 
ATOM     28  O   UNL     1      18.748  18.359   3.242  1.00  0.00    -0.251 OA
BRANCH  27  29
ATOM     29  O   UNL     1      17.302  18.342   1.495  1.00  0.00    -0.480 OA
ATOM     30  H   UNL     1      16.332  18.493   1.410  1.00  0.00    +0.296 HD
ENDBRANCH  27  29
ENDBRANCH  26  27
ENDBRANCH  20  26
ENDBRANCH  19  20
ENDBRANCH  18  19
ENDBRANCH  17  18
ENDBRANCH  16  17
ENDBRANCH   1  16
TORSDOF 21
ENDMDL
MODEL 9
REMARK minimizedAffinity -5.75167847
REMARK minimizedRMSD -1
REMARK SMILES O=C(O)CN(CCOCCOCCN(CC(=O)O)CC(=O)O)CC(=O)O
REMARK SMILES IDX 9 1 8 2 7 3 6 4 5 5 4 6 2 7 1 8 3 9 23 11 24 12 25 13 26 14
REMARK SMILES IDX 10 16 11 17 12 18 13 19 14 20 15 21 16 22 17 23 18 24 19 26
REMARK SMILES IDX 20 27 21 28 22 29
REMARK H PARENT 3 10 26 15 18 25 22 30
ROOT
ATOM      1  C   UNL     1      11.653  22.844   4.161  1.00  0.00    +0.188 C 
ENDROOT
BRANCH   1   2
ATOM      2  O   UNL     1      10.605  23.822   4.278  1.00  0.00    -0.378 OA
BRANCH   2   3
ATOM      3  C   UNL     1      11.084  25.056   4.845  1.00  0.00    +0.175 C 
BRANCH   3   4
ATOM      4  C   UNL     1       9.943  25.821   5.566  1.00  0.00    +0.114 C 
BRANCH   4   5
ATOM      5  N   UNL     1      10.206  26.292   6.961  1.00  0.00    -0.280 NA
BRANCH   5   6
ATOM      6  C   UNL     1       8.874  26.638   7.578  1.00  0.00    +0.208 C 
BRANCH   6   7
ATOM      7  C   UNL     1       8.875  28.021   8.232  1.00  0.00    +0.317 C 
ATOM      8  O   UNL     1       9.757  28.852   8.103  1.00  0.00    -0.251 OA
BRANCH   7   9
ATOM      9  O   UNL     1       7.793  28.208   9.034  1.00  0.00    -0.480 OA
ATOM     10  H   UNL     1       7.228  27.407   8.976  1.00  0.00    +0.296 HD
ENDBRANCH   7   9
ENDBRANCH   6   7
ENDBRANCH   5   6
BRANCH   5  11
ATOM     11  C   UNL     1      10.918  25.283   7.801  1.00  0.00    +0.208 C 
BRANCH  11  12
ATOM     12  C   UNL     1      12.147  25.827   8.509  1.00  0.00    +0.317 C 
ATOM     13  O   UNL     1      12.119  26.491   9.534  1.00  0.00    -0.251 OA
BRANCH  12  14
ATOM     14  O   UNL     1      13.302  25.443   7.941  1.00  0.00    -0.480 OA
ATOM     15  H   UNL     1      13.157  24.947   7.097  1.00  0.00    +0.296 HD
ENDBRANCH  12  14
ENDBRANCH  11  12
ENDBRANCH   5  11
ENDBRANCH   4   5
ENDBRANCH   3   4
ENDBRANCH   2   3
ENDBRANCH   1   2
BRANCH   1  16
ATOM     16  C   UNL     1      12.871  23.295   4.980  1.00  0.00    +0.188 C 
BRANCH  16  17
ATOM     17  O   UNL     1      14.087  22.733   4.445  1.00  0.00    -0.378 OA
BRANCH  17  18
ATOM     18  C   UNL     1      15.200  23.015   5.322  1.00  0.00    +0.175 C 
BRANCH  18  19
ATOM     19  C   UNL     1      15.444  21.880   6.353  1.00  0.00    +0.114 C 
BRANCH  19  20
ATOM     20  N   UNL     1      16.128  20.679   5.802  1.00  0.00    -0.280 NA
BRANCH  20  21
ATOM     21  C   UNL     1      17.065  20.073   6.779  1.00  0.00    +0.208 C 
BRANCH  21  22
ATOM     22  C   UNL     1      18.370  19.535   6.196  1.00  0.00    +0.317 C 
ATOM     23  O   UNL     1      18.721  19.695   5.036  1.00  0.00    -0.251 OA
BRANCH  22  24
ATOM     24  O   UNL     1      19.098  18.801   7.076  1.00  0.00    -0.480 OA
ATOM     25  H   UNL     1      18.639  18.688   7.941  1.00  0.00    +0.296 HD
ENDBRANCH  22  24
ENDBRANCH  21  22
ENDBRANCH  20  21
BRANCH  20  26
ATOM     26  C   UNL     1      15.161  19.627   5.364  1.00  0.00    +0.208 C 
BRANCH  26  27
ATOM     27  C   UNL     1      15.338  19.325   3.878  1.00  0.00    +0.317 C 
ATOM     28  O   UNL     1      15.946  18.369   3.426  1.00  0.00    -0.251 OA
BRANCH  27  29
ATOM     29  O   UNL     1      14.768  20.279   3.093  1.00  0.00    -0.480 OA
ATOM     30  H   UNL     1      14.343  20.934   3.694  1.00  0.00    +0.296 HD
ENDBRANCH  27  29
ENDBRANCH  26  27
ENDBRANCH  20  26
ENDBRANCH  19  20
ENDBRANCH  18  19
ENDBRANCH  17  18
ENDBRANCH  16  17
ENDBRANCH   1  16
TORSDOF 21
ENDMDL
