MODEL 1
REMARK minimizedAffinity -3.35907555
REMARK minimizedRMSD -1
REMARK SMILES NCC(=O)O
REMARK SMILES IDX 3 1 4 2 2 3 1 4 5 7
REMARK H PARENT 1 5 1 6 5 8
ROOT
ATOM      1  C   UNL     1      12.988  25.173   5.084  1.00  0.00    +0.317 C 
ATOM      2  O   UNL     1      12.631  25.677   6.137  1.00  0.00    -0.251 OA
ENDROOT
BRANCH   1   3
ATOM      3  C   UNL     1      12.104  24.327   4.172  1.00  0.00    +0.201 C 
BRANCH   3   4
ATOM      4  N   UNL     1      12.013  24.982   2.841  1.00  0.00    -0.321 NA
ATOM      5  H   UNL     1      11.391  24.412   2.260  1.00  0.00    +0.119 HD
ATOM      6  H   UNL     1      12.928  24.886   2.386  1.00  0.00    +0.119 HD
ENDBRANCH   3   4
ENDBRANCH   1   3
BRANCH   1   7
ATOM      7  O   UNL     1      14.231  25.328   4.558  1.00  0.00    -0.480 OA
ATOM      8  H   UNL     1      14.241  24.806   3.717  1.00  0.00    +0.296 HD
ENDBRANCH   1   7
TORSDOF 3
ENDMDL
MODEL 2
REMARK minimizedAffinity -3.34966207
REMARK minimizedRMSD -1
REMARK SMILES NCC(=O)O
REMARK SMILES IDX 3 1 4 2 2 3 1 4 5 7
REMARK H PARENT 1 5 1 6 5 8
ROOT
ATOM      1  C   UNL     1      15.140  23.499   5.055  1.00  0.00    +0.317 C 
ATOM      2  O   UNL     1      15.450  22.672   4.214  1.00  0.00    -0.251 OA
ENDROOT
BRANCH   1   3
ATOM      3  C   UNL     1      15.100  23.248   6.560  1.00  0.00    +0.201 C 
BRANCH   3   4
ATOM      4  N   UNL     1      16.334  23.802   7.176  1.00  0.00    -0.321 NA
ATOM      5  H   UNL     1      16.297  23.592   8.179  1.00  0.00    +0.119 HD
ATOM      6  H   UNL     1      16.267  24.825   7.138  1.00  0.00    +0.119 HD
ENDBRANCH   3   4
ENDBRANCH   1   3
BRANCH   1   7
ATOM      7  O   UNL     1      14.816  24.787   4.763  1.00  0.00    -0.480 OA
ATOM      8  H   UNL     1      14.600  25.218   5.627  1.00  0.00    +0.296 HD
ENDBRANCH   1   7
TORSDOF 3
ENDMDL
MODEL 3
REMARK minimizedAffinity -3.3156004
REMARK minimizedRMSD -1
REMARK SMILES NCC(=O)O
REMARK SMILES IDX 3 1 4 2 2 3 1 4 5 7
REMARK H PARENT 1 5 1 6 5 8
ROOT
ATOM      1  C   UNL     1      15.031  23.600   5.334  1.00  0.00    +0.317 C 
ATOM      2  O   UNL     1      15.470  23.395   6.455  1.00  0.00    -0.251 OA
ENDROOT
BRANCH   1   3
ATOM      3  C   UNL     1      13.665  24.209   5.026  1.00  0.00    +0.201 C 
BRANCH   3   4
ATOM      4  N   UNL     1      13.854  25.599   4.537  1.00  0.00    -0.321 NA
ATOM      5  H   UNL     1      12.924  25.995   4.368  1.00  0.00    +0.119 HD
ATOM      6  H   UNL     1      14.270  25.545   3.601  1.00  0.00    +0.119 HD
ENDBRANCH   3   4
ENDBRANCH   1   3
BRANCH   1   7
ATOM      7  O   UNL     1      15.723  23.342   4.194  1.00  0.00    -0.480 OA
ATOM      8  H   UNL     1      15.125  23.592   3.447  1.00  0.00    +0.296 HD
ENDBRANCH   1   7
TORSDOF 3
ENDMDL
MODEL 4
REMARK minimizedAffinity -3.30595779
REMARK minimizedRMSD -1
REMARK SMILES NCC(=O)O
REMARK SMILES IDX 3 1 4 2 2 3 1 4 5 7
REMARK H PARENT 1 5 1 6 5 8
ROOT
ATOM      1  C   UNL     1      13.006  25.044   4.805  1.00  0.00    +0.317 C 
ATOM      2  O   UNL     1      12.661  25.835   5.668  1.00  0.00    -0.251 OA
ENDROOT
BRANCH   1   3
ATOM      3  C   UNL     1      13.967  23.877   5.019  1.00  0.00    +0.201 C 
BRANCH   3   4
ATOM      4  N   UNL     1      15.361  24.360   4.855  1.00  0.00    -0.321 NA
ATOM      5  H   UNL     1      15.982  23.554   4.972  1.00  0.00    +0.119 HD
ATOM      6  H   UNL     1      15.580  24.956   5.661  1.00  0.00    +0.119 HD
ENDBRANCH   3   4
ENDBRANCH   1   3
BRANCH   1   7
ATOM      7  O   UNL     1      12.548  25.075   3.526  1.00  0.00    -0.480 OA
ATOM      8  H   UNL     1      13.002  24.333   3.054  1.00  0.00    +0.296 HD
ENDBRANCH   1   7
TORSDOF 3
ENDMDL
MODEL 5
REMARK minimizedAffinity -3.18071389
REMARK minimizedRMSD -1
REMARK SMILES NCC(=O)O
REMARK SMILES IDX 3 1 4 2 2 3 1 4 5 7
REMARK H PARENT 1 5 1 6 5 8
ROOT
ATOM      1  C   UNL     1      11.993  24.465   4.030  1.00  0.00    +0.317 C 
ATOM      2  O   UNL     1      11.323  23.464   4.226  1.00  0.00    -0.251 OA
ENDROOT
BRANCH   1   3
ATOM      3  C   UNL     1      12.846  25.170   5.081  1.00  0.00    +0.201 C 
BRANCH   3   4
ATOM      4  N   UNL     1      14.271  25.116   4.666  1.00  0.00    -0.321 NA
ATOM      5  H   UNL     1      14.823  25.566   5.401  1.00  0.00    +0.119 HD
ATOM      6  H   UNL     1      14.383  25.741   3.859  1.00  0.00    +0.119 HD
ENDBRANCH   3   4
ENDBRANCH   1   3
BRANCH   1   7
ATOM      7  O   UNL     1      12.098  25.077   2.821  1.00  0.00    -0.480 OA
ATOM      8  H   UNL     1      12.688  25.860   2.959  1.00  0.00    +0.296 HD
ENDBRANCH   1   7
TORSDOF 3
ENDMDL
MODEL 6
REMARK minimizedAffinity -3.13747454
REMARK minimizedRMSD -1
REMARK SMILES NCC(=O)O
REMARK SMILES IDX 3 1 4 2 2 3 1 4 5 7
REMARK H PARENT 1 5 1 6 5 8
ROOT
ATOM      1  C   UNL     1      17.921  18.374   3.497  1.00  0.00    +0.317 C 
ATOM      2  O   UNL     1      18.661  18.802   4.368  1.00  0.00    -0.251 OA
ENDROOT
BRANCH   1   3
ATOM      3  C   UNL     1      16.672  17.532   3.743  1.00  0.00    +0.201 C 
BRANCH   3   4
ATOM      4  N   UNL     1      16.741  16.949   5.108  1.00  0.00    -0.321 NA
ATOM      5  H   UNL     1      15.909  16.365   5.235  1.00  0.00    +0.119 HD
ATOM      6  H   UNL     1      16.608  17.714   5.779  1.00  0.00    +0.119 HD
ENDBRANCH   3   4
ENDBRANCH   1   3
BRANCH   1   7
ATOM      7  O   UNL     1      18.094  18.622   2.172  1.00  0.00    -0.480 OA
ATOM      8  H   UNL     1      17.362  18.146   1.706  1.00  0.00    +0.296 HD
ENDBRANCH   1   7
TORSDOF 3
ENDMDL
MODEL 7
REMARK minimizedAffinity -3.01565886
REMARK minimizedRMSD -1
REMARK SMILES NCC(=O)O
REMARK SMILES IDX 3 1 4 2 2 3 1 4 5 7
REMARK H PARENT 1 5 1 6 5 8
ROOT
ATOM      1  C   UNL     1      17.422  17.869   2.348  1.00  0.00    +0.317 C 
ATOM      2  O   UNL     1      18.437  18.483   2.635  1.00  0.00    -0.251 OA
ENDROOT
BRANCH   1   3
ATOM      3  C   UNL     1      16.235  17.653   3.283  1.00  0.00    +0.201 C 
BRANCH   3   4
ATOM      4  N   UNL     1      15.004  18.169   2.630  1.00  0.00    -0.321 NA
ATOM      5  H   UNL     1      14.230  18.041   3.289  1.00  0.00    +0.119 HD
ATOM      6  H   UNL     1      14.774  17.536   1.857  1.00  0.00    +0.119 HD
ENDBRANCH   3   4
ENDBRANCH   1   3
BRANCH   1   7
ATOM      7  O   UNL     1      17.194  17.317   1.128  1.00  0.00    -0.480 OA
ATOM      8  H   UNL     1      16.309  16.878   1.186  1.00  0.00    +0.296 HD
ENDBRANCH   1   7
TORSDOF 3
ENDMDL
MODEL 8
REMARK minimizedAffinity -2.90939236
REMARK minimizedRMSD -1
REMARK SMILES NCC(=O)O
REMARK SMILES IDX 3 1 4 2 2 3 1 4 5 7
REMARK H PARENT 1 5 1 6 5 8
ROOT
ATOM      1  C   UNL     1       8.854  28.058   8.554  1.00  0.00    +0.317 C 
ATOM      2  O   UNL     1       9.204  28.882   7.724  1.00  0.00    -0.251 OA
ENDROOT
BRANCH   1   3
ATOM      3  C   UNL     1       9.497  26.688   8.754  1.00  0.00    +0.201 C 
BRANCH   3   4
ATOM      4  N   UNL     1       8.508  25.634   8.409  1.00  0.00    -0.321 NA
ATOM      5  H   UNL     1       8.953  24.727   8.582  1.00  0.00    +0.119 HD
ATOM      6  H   UNL     1       8.378  25.652   7.392  1.00  0.00    +0.119 HD
ENDBRANCH   3   4
ENDBRANCH   1   3
BRANCH   1   7
ATOM      7  O   UNL     1       7.853  28.267   9.449  1.00  0.00    -0.480 OA
ATOM      8  H   UNL     1       7.783  27.436   9.982  1.00  0.00    +0.296 HD
ENDBRANCH   1   7
TORSDOF 3
ENDMDL
MODEL 9
REMARK minimizedAffinity -2.88892269
REMARK minimizedRMSD -1
REMARK SMILES NCC(=O)O
REMARK SMILES IDX 3 1 4 2 2 3 1 4 5 7
REMARK H PARENT 1 5 1 6 5 8
ROOT
ATOM      1  C   UNL     1       8.045  26.561   8.614  1.00  0.00    +0.317 C 
ATOM      2  O   UNL     1       8.743  25.603   8.906  1.00  0.00    -0.251 OA
ENDROOT
BRANCH   1   3
ATOM      3  C   UNL     1       8.315  28.003   9.037  1.00  0.00    +0.201 C 
BRANCH   3   4
ATOM      4  N   UNL     1       8.578  28.821   7.825  1.00  0.00    -0.321 NA
ATOM      5  H   UNL     1       8.786  29.775   8.138  1.00  0.00    +0.119 HD
ATOM      6  H   UNL     1       7.691  28.919   7.318  1.00  0.00    +0.119 HD
ENDBRANCH   3   4
ENDBRANCH   1   3
BRANCH   1   7
ATOM      7  O   UNL     1       6.937  26.476   7.833  1.00  0.00    -0.480 OA
ATOM      8  H   UNL     1       6.570  27.394   7.776  1.00  0.00    +0.296 HD
ENDBRANCH   1   7
TORSDOF 3
ENDMDL
