MODEL 1
REMARK minimizedAffinity -3.99109483
REMARK minimizedRMSD -1
REMARK SMILES O=C(O)CC(=O)O
REMARK SMILES IDX 4 1 2 2 1 3 3 4 5 6 6 7 7 8
REMARK H PARENT 3 5 7 9
ROOT
ATOM      1  C   UNL     1      15.953  17.905   2.875  1.00  0.00    +0.244 C 
ENDROOT
BRANCH   1   2
ATOM      2  C   UNL     1      16.122  17.533   4.321  1.00  0.00    +0.314 C 
ATOM      3  O   UNL     1      17.168  17.774   4.914  1.00  0.00    -0.252 OA
BRANCH   2   4
ATOM      4  O   UNL     1      15.092  16.931   4.944  1.00  0.00    -0.481 OA
ATOM      5  H   UNL     1      14.290  16.777   4.386  1.00  0.00    +0.296 HD
ENDBRANCH   2   4
ENDBRANCH   1   2
BRANCH   1   6
ATOM      6  C   UNL     1      17.142  17.733   1.990  1.00  0.00    +0.314 C 
ATOM      7  O   UNL     1      17.251  16.840   1.159  1.00  0.00    -0.252 OA
BRANCH   6   8
ATOM      8  O   UNL     1      18.105  18.659   2.187  1.00  0.00    -0.481 OA
ATOM      9  H   UNL     1      17.908  19.324   2.876  1.00  0.00    +0.296 HD
ENDBRANCH   6   8
ENDBRANCH   1   6
TORSDOF 4
ENDMDL
MODEL 2
REMARK minimizedAffinity -3.97969866
REMARK minimizedRMSD -1
REMARK SMILES O=C(O)CC(=O)O
REMARK SMILES IDX 4 1 2 2 1 3 3 4 5 6 6 7 7 8
REMARK H PARENT 3 5 7 9
ROOT
ATOM      1  C   UNL     1      16.430  18.160   3.325  1.00  0.00    +0.244 C 
ENDROOT
BRANCH   1   2
ATOM      2  C   UNL     1      17.553  17.613   2.490  1.00  0.00    +0.314 C 
ATOM      3  O   UNL     1      17.325  16.982   1.464  1.00  0.00    -0.252 OA
BRANCH   2   4
ATOM      4  O   UNL     1      18.814  17.840   2.901  1.00  0.00    -0.481 OA
ATOM      5  H   UNL     1      18.902  18.358   3.739  1.00  0.00    +0.296 HD
ENDBRANCH   2   4
ENDBRANCH   1   2
BRANCH   1   6
ATOM      6  C   UNL     1      15.948  17.307   4.450  1.00  0.00    +0.314 C 
ATOM      7  O   UNL     1      14.768  17.067   4.668  1.00  0.00    -0.252 OA
BRANCH   6   8
ATOM      8  O   UNL     1      16.940  16.815   5.223  1.00  0.00    -0.481 OA
ATOM      9  H   UNL     1      17.844  17.073   4.954  1.00  0.00    +0.296 HD
ENDBRANCH   6   8
ENDBRANCH   1   6
TORSDOF 4
ENDMDL
MODEL 3
REMARK minimizedAffinity -3.86928964
REMARK minimizedRMSD -1
REMARK SMILES O=C(O)CC(=O)O
REMARK SMILES IDX 4 1 2 2 1 3 3 4 5 6 6 7 7 8
REMARK H PARENT 3 5 7 9
ROOT
ATOM      1  C   UNL     1       9.557  26.836   9.244  1.00  0.00    +0.244 C 
ENDROOT
BRANCH   1   2
ATOM      2  C   UNL     1       8.899  25.559   8.805  1.00  0.00    +0.314 C 
ATOM      3  O   UNL     1       9.569  24.584   8.481  1.00  0.00    -0.252 OA
BRANCH   2   4
ATOM      4  O   UNL     1       7.553  25.517   8.781  1.00  0.00    -0.481 OA
ATOM      5  H   UNL     1       7.097  26.350   9.058  1.00  0.00    +0.296 HD
ENDBRANCH   2   4
ENDBRANCH   1   2
BRANCH   1   6
ATOM      6  C   UNL     1       8.976  28.108   8.723  1.00  0.00    +0.314 C 
ATOM      7  O   UNL     1       9.555  28.854   7.943  1.00  0.00    -0.252 OA
BRANCH   6   8
ATOM      8  O   UNL     1       7.739  28.374   9.193  1.00  0.00    -0.481 OA
ATOM      9  H   UNL     1       7.376  27.708   9.810  1.00  0.00    +0.296 HD
ENDBRANCH   6   8
ENDBRANCH   1   6
TORSDOF 4
ENDMDL
MODEL 4
REMARK minimizedAffinity -3.84931612
REMARK minimizedRMSD -1
REMARK SMILES O=C(O)CC(=O)O
REMARK SMILES IDX 4 1 2 2 1 3 3 4 5 6 6 7 7 8
REMARK H PARENT 3 5 7 9
ROOT
ATOM      1  C   UNL     1      17.294  19.124   4.195  1.00  0.00    +0.244 C 
ENDROOT
BRANCH   1   2
ATOM      2  C   UNL     1      18.335  19.015   5.273  1.00  0.00    +0.314 C 
ATOM      3  O   UNL     1      18.524  17.955   5.862  1.00  0.00    -0.252 OA
BRANCH   2   4
ATOM      4  O   UNL     1      19.054  20.113   5.571  1.00  0.00    -0.481 OA
ATOM      5  H   UNL     1      18.833  20.921   5.046  1.00  0.00    +0.296 HD
ENDBRANCH   2   4
ENDBRANCH   1   2
BRANCH   1   6
ATOM      6  C   UNL     1      17.614  18.493   2.881  1.00  0.00    +0.314 C 
ATOM      7  O   UNL     1      16.861  18.507   1.916  1.00  0.00    -0.252 OA
BRANCH   6   8
ATOM      8  O   UNL     1      18.824  17.894   2.847  1.00  0.00    -0.481 OA
ATOM      9  H   UNL     1      19.338  17.946   3.676  1.00  0.00    +0.296 HD
ENDBRANCH   6   8
ENDBRANCH   1   6
TORSDOF 4
ENDMDL
MODEL 5
REMARK minimizedAffinity -3.82850885
REMARK minimizedRMSD -1
REMARK SMILES O=C(O)CC(=O)O
REMARK SMILES IDX 4 1 2 2 1 3 3 4 5 6 6 7 7 8
REMARK H PARENT 3 5 7 9
ROOT
ATOM      1  C   UNL     1      14.289  23.452   6.516  1.00  0.00    +0.244 C 
ENDROOT
BRANCH   1   2
ATOM      2  C   UNL     1      14.774  23.830   5.144  1.00  0.00    +0.314 C 
ATOM      3  O   UNL     1      15.457  23.055   4.483  1.00  0.00    -0.252 OA
BRANCH   2   4
ATOM      4  O   UNL     1      14.433  25.040   4.665  1.00  0.00    -0.481 OA
ATOM      5  H   UNL     1      13.881  25.597   5.268  1.00  0.00    +0.296 HD
ENDBRANCH   2   4
ENDBRANCH   1   2
BRANCH   1   6
ATOM      6  C   UNL     1      15.321  23.330   7.587  1.00  0.00    +0.314 C 
ATOM      7  O   UNL     1      15.117  22.809   8.675  1.00  0.00    -0.252 OA
BRANCH   6   8
ATOM      8  O   UNL     1      16.519  23.854   7.249  1.00  0.00    -0.481 OA
ATOM      9  H   UNL     1      16.566  24.244   6.354  1.00  0.00    +0.296 HD
ENDBRANCH   6   8
ENDBRANCH   1   6
TORSDOF 4
ENDMDL
MODEL 6
REMARK minimizedAffinity -3.79299545
REMARK minimizedRMSD -1
REMARK SMILES O=C(O)CC(=O)O
REMARK SMILES IDX 4 1 2 2 1 3 3 4 5 6 6 7 7 8
REMARK H PARENT 3 5 7 9
ROOT
ATOM      1  C   UNL     1      13.479  23.477   4.892  1.00  0.00    +0.244 C 
ENDROOT
BRANCH   1   2
ATOM      2  C   UNL     1      12.947  24.849   4.588  1.00  0.00    +0.314 C 
ATOM      3  O   UNL     1      13.008  25.747   5.421  1.00  0.00    -0.252 OA
BRANCH   2   4
ATOM      4  O   UNL     1      12.404  25.062   3.375  1.00  0.00    -0.481 OA
ATOM      5  H   UNL     1      12.397  24.281   2.769  1.00  0.00    +0.296 HD
ENDBRANCH   2   4
ENDBRANCH   1   2
BRANCH   1   6
ATOM      6  C   UNL     1      14.955  23.284   4.775  1.00  0.00    +0.314 C 
ATOM      7  O   UNL     1      15.483  22.219   4.483  1.00  0.00    -0.252 OA
BRANCH   6   8
ATOM      8  O   UNL     1      15.670  24.402   5.024  1.00  0.00    -0.481 OA
ATOM      9  H   UNL     1      15.142  25.194   5.246  1.00  0.00    +0.296 HD
ENDBRANCH   6   8
ENDBRANCH   1   6
TORSDOF 4
ENDMDL
MODEL 7
REMARK minimizedAffinity -3.78262854
REMARK minimizedRMSD -1
REMARK SMILES O=C(O)CC(=O)O
REMARK SMILES IDX 4 1 2 2 1 3 3 4 5 6 6 7 7 8
REMARK H PARENT 3 5 7 9
ROOT
ATOM      1  C   UNL     1      16.002  18.360   3.219  1.00  0.00    +0.244 C 
ENDROOT
BRANCH   1   2
ATOM      2  C   UNL     1      15.315  18.136   4.537  1.00  0.00    +0.314 C 
ATOM      3  O   UNL     1      14.948  19.083   5.224  1.00  0.00    -0.252 OA
BRANCH   2   4
ATOM      4  O   UNL     1      15.114  16.867   4.937  1.00  0.00    -0.481 OA
ATOM      5  H   UNL     1      15.443  16.169   4.318  1.00  0.00    +0.296 HD
ENDBRANCH   2   4
ENDBRANCH   1   2
BRANCH   1   6
ATOM      6  C   UNL     1      17.452  18.707   3.264  1.00  0.00    +0.314 C 
ATOM      7  O   UNL     1      18.240  18.467   2.359  1.00  0.00    -0.252 OA
BRANCH   6   8
ATOM      8  O   UNL     1      17.830  19.318   4.408  1.00  0.00    -0.481 OA
ATOM      9  H   UNL     1      17.115  19.458   5.060  1.00  0.00    +0.296 HD
ENDBRANCH   6   8
ENDBRANCH   1   6
TORSDOF 4
ENDMDL
MODEL 8
REMARK minimizedAffinity -3.76829648
REMARK minimizedRMSD -1
REMARK SMILES O=C(O)CC(=O)O
REMARK SMILES IDX 4 1 2 2 1 3 3 4 5 6 6 7 7 8
REMARK H PARENT 3 5 7 9
ROOT
ATOM      1  C   UNL     1      13.458  23.480   4.806  1.00  0.00    +0.244 C 
ENDROOT
BRANCH   1   2
ATOM      2  C   UNL     1      14.953  23.319   4.785  1.00  0.00    +0.314 C 
ATOM      3  O   UNL     1      15.465  22.232   4.541  1.00  0.00    -0.252 OA
BRANCH   2   4
ATOM      4  O   UNL     1      15.708  24.404   5.038  1.00  0.00    -0.481 OA
ATOM      5  H   UNL     1      15.209  25.237   5.224  1.00  0.00    +0.296 HD
ENDBRANCH   2   4
ENDBRANCH   1   2
BRANCH   1   6
ATOM      6  C   UNL     1      12.925  24.858   4.597  1.00  0.00    +0.314 C 
ATOM      7  O   UNL     1      12.977  25.745   5.439  1.00  0.00    -0.252 OA
BRANCH   6   8
ATOM      8  O   UNL     1      12.369  25.047   3.381  1.00  0.00    -0.481 OA
ATOM      9  H   UNL     1      12.384  24.269   2.791  1.00  0.00    +0.296 HD
ENDBRANCH   6   8
ENDBRANCH   1   6
TORSDOF 4
ENDMDL
MODEL 9
REMARK minimizedAffinity -3.73970962
REMARK minimizedRMSD -1
REMARK SMILES O=C(O)CC(=O)O
REMARK SMILES IDX 4 1 2 2 1 3 3 4 5 6 6 7 7 8
REMARK H PARENT 3 5 7 9
ROOT
ATOM      1  C   UNL     1      12.777  23.628   4.461  1.00  0.00    +0.244 C 
ENDROOT
BRANCH   1   2
ATOM      2  C   UNL     1      11.814  23.850   3.329  1.00  0.00    +0.314 C 
ATOM      3  O   UNL     1      11.005  22.985   3.011  1.00  0.00    -0.252 OA
BRANCH   2   4
ATOM      4  O   UNL     1      11.865  25.027   2.678  1.00  0.00    -0.481 OA
ATOM      5  H   UNL     1      12.549  25.664   3.004  1.00  0.00    +0.296 HD
ENDBRANCH   2   4
ENDBRANCH   1   2
BRANCH   1   6
ATOM      6  C   UNL     1      13.532  24.819   4.949  1.00  0.00    +0.314 C 
ATOM      7  O   UNL     1      13.005  25.797   5.464  1.00  0.00    -0.252 OA
BRANCH   6   8
ATOM      8  O   UNL     1      14.867  24.727   4.771  1.00  0.00    -0.481 OA
ATOM      9  H   UNL     1      15.175  23.900   4.351  1.00  0.00    +0.296 HD
ENDBRANCH   6   8
ENDBRANCH   1   6
TORSDOF 4
ENDMDL
