MODEL 1
REMARK minimizedAffinity -3.50429845
REMARK minimizedRMSD -1
REMARK  Name = 
REMARK  3 active torsions:
REMARK  status: ('A' for Active; 'I' for Inactive)
REMARK    1  A    between atoms: O_1  and  P_2
REMARK    2  A    between atoms: P_2  and  O_4
REMARK    3  A    between atoms: P_2  and  O_5
REMARK                            x       y       z     vdW  Elec       q    Type
REMARK                         _______ _______ _______ _____ _____    ______ ____
ROOT
ATOM      1  P   UNL     1      14.523  23.520   5.132  0.00  0.00    +0.470 P 
ATOM      2  O   UNL     1      15.522  22.783   4.250  0.00  0.00    -0.228 OA
ENDROOT
BRANCH   1   3
ATOM      3  O   UNL     1      13.270  23.193   3.985  0.00  0.00    -0.303 OA
ATOM      4  H   UNL     1      13.164  22.234   3.887  0.00  0.00    +0.222 HD
ENDBRANCH   1   3
BRANCH   1   5
ATOM      5  O   UNL     1      15.777  23.847   6.277  0.00  0.00    -0.303 OA
ATOM      6  H   UNL     1      15.994  23.034   6.760  0.00  0.00    +0.222 HD
ENDBRANCH   1   5
BRANCH   1   7
ATOM      7  O   UNL     1      14.553  25.070   4.656  0.00  0.00    -0.303 OA
ATOM      8  H   UNL     1      13.896  25.206   3.956  0.00  0.00    +0.222 HD
ENDBRANCH   1   7
TORSDOF 3
ENDMDL
MODEL 2
REMARK minimizedAffinity -3.44437408
REMARK minimizedRMSD -1
REMARK  Name = 
REMARK  3 active torsions:
REMARK  status: ('A' for Active; 'I' for Inactive)
REMARK    1  A    between atoms: O_1  and  P_2
REMARK    2  A    between atoms: P_2  and  O_4
REMARK    3  A    between atoms: P_2  and  O_5
REMARK                            x       y       z     vdW  Elec       q    Type
REMARK                         _______ _______ _______ _____ _____    ______ ____
ROOT
ATOM      1  P   UNL     1      12.911  25.008   5.081  0.00  0.00    +0.470 P 
ATOM      2  O   UNL     1      12.568  23.528   5.175  0.00  0.00    -0.228 OA
ENDROOT
BRANCH   1   3
ATOM      3  O   UNL     1      12.430  25.014   3.420  0.00  0.00    -0.303 OA
ATOM      4  H   UNL     1      11.496  24.762   3.352  0.00  0.00    +0.222 HD
ENDBRANCH   1   3
BRANCH   1   5
ATOM      5  O   UNL     1      13.392  25.002   6.742  0.00  0.00    -0.303 OA
ATOM      6  H   UNL     1      12.604  24.956   7.307  0.00  0.00    +0.222 HD
ENDBRANCH   1   5
BRANCH   1   7
ATOM      7  O   UNL     1      14.467  25.087   4.631  0.00  0.00    -0.303 OA
ATOM      8  H   UNL     1      14.523  25.106   3.663  0.00  0.00    +0.222 HD
ENDBRANCH   1   7
TORSDOF 3
ENDMDL
MODEL 3
REMARK minimizedAffinity -3.43891478
REMARK minimizedRMSD -1
REMARK  Name = 
REMARK  3 active torsions:
REMARK  status: ('A' for Active; 'I' for Inactive)
REMARK    1  A    between atoms: O_1  and  P_2
REMARK    2  A    between atoms: P_2  and  O_4
REMARK    3  A    between atoms: P_2  and  O_5
REMARK                            x       y       z     vdW  Elec       q    Type
REMARK                         _______ _______ _______ _____ _____    ______ ____
ROOT
ATOM      1  P   UNL     1      12.949  24.683   4.975  0.00  0.00    +0.470 P 
ATOM      2  O   UNL     1      12.033  25.738   5.581  0.00  0.00    -0.228 OA
ENDROOT
BRANCH   1   3
ATOM      3  O   UNL     1      13.647  24.394   6.531  0.00  0.00    -0.303 OA
ATOM      4  H   UNL     1      12.957  24.095   7.144  0.00  0.00    +0.222 HD
ENDBRANCH   1   3
BRANCH   1   5
ATOM      5  O   UNL     1      12.251  24.973   3.419  0.00  0.00    -0.303 OA
ATOM      6  H   UNL     1      11.361  24.589   3.388  0.00  0.00    +0.222 HD
ENDBRANCH   1   5
BRANCH   1   7
ATOM      7  O   UNL     1      14.296  25.460   4.515  0.00  0.00    -0.303 OA
ATOM      8  H   UNL     1      14.934  25.461   5.246  0.00  0.00    +0.222 HD
ENDBRANCH   1   7
TORSDOF 3
ENDMDL
MODEL 4
REMARK minimizedAffinity -3.39615417
REMARK minimizedRMSD -1
REMARK  Name = 
REMARK  3 active torsions:
REMARK  status: ('A' for Active; 'I' for Inactive)
REMARK    1  A    between atoms: O_1  and  P_2
REMARK    2  A    between atoms: P_2  and  O_4
REMARK    3  A    between atoms: P_2  and  O_5
REMARK                            x       y       z     vdW  Elec       q    Type
REMARK                         _______ _______ _______ _____ _____    ______ ____
ROOT
ATOM      1  P   UNL     1      14.983  23.359   5.101  0.00  0.00    +0.470 P 
ATOM      2  O   UNL     1      13.873  22.905   6.040  0.00  0.00    -0.228 OA
ENDROOT
BRANCH   1   3
ATOM      3  O   UNL     1      15.917  23.885   6.458  0.00  0.00    -0.303 OA
ATOM      4  H   UNL     1      16.097  23.129   7.039  0.00  0.00    +0.222 HD
ENDBRANCH   1   3
BRANCH   1   5
ATOM      5  O   UNL     1      14.049  22.833   3.744  0.00  0.00    -0.303 OA
ATOM      6  H   UNL     1      14.057  21.863   3.702  0.00  0.00    +0.222 HD
ENDBRANCH   1   5
BRANCH   1   7
ATOM      7  O   UNL     1      14.659  24.903   4.725  0.00  0.00    -0.303 OA
ATOM      8  H   UNL     1      15.089  25.488   5.368  0.00  0.00    +0.222 HD
ENDBRANCH   1   7
TORSDOF 3
ENDMDL
MODEL 5
REMARK minimizedAffinity -3.3181963
REMARK minimizedRMSD -1
REMARK  Name = 
REMARK  3 active torsions:
REMARK  status: ('A' for Active; 'I' for Inactive)
REMARK    1  A    between atoms: O_1  and  P_2
REMARK    2  A    between atoms: P_2  and  O_4
REMARK    3  A    between atoms: P_2  and  O_5
REMARK                            x       y       z     vdW  Elec       q    Type
REMARK                         _______ _______ _______ _____ _____    ______ ____
ROOT
ATOM      1  P   UNL     1      14.799  23.325   5.487  0.00  0.00    +0.470 P 
ATOM      2  O   UNL     1      15.490  22.768   4.249  0.00  0.00    -0.228 OA
ENDROOT
BRANCH   1   3
ATOM      3  O   UNL     1      14.659  24.866   4.715  0.00  0.00    -0.303 OA
ATOM      4  H   UNL     1      14.132  24.776   3.906  0.00  0.00    +0.222 HD
ENDBRANCH   1   3
BRANCH   1   5
ATOM      5  O   UNL     1      14.940  21.783   6.258  0.00  0.00    -0.303 OA
ATOM      6  H   UNL     1      14.304  21.166   5.865  0.00  0.00    +0.222 HD
ENDBRANCH   1   5
BRANCH   1   7
ATOM      7  O   UNL     1      15.974  23.909   6.440  0.00  0.00    -0.303 OA
ATOM      8  H   UNL     1      16.134  24.840   6.222  0.00  0.00    +0.222 HD
ENDBRANCH   1   7
TORSDOF 3
ENDMDL
MODEL 6
REMARK minimizedAffinity -3.29709482
REMARK minimizedRMSD -1
REMARK  Name = 
REMARK  3 active torsions:
REMARK  status: ('A' for Active; 'I' for Inactive)
REMARK    1  A    between atoms: O_1  and  P_2
REMARK    2  A    between atoms: P_2  and  O_4
REMARK    3  A    between atoms: P_2  and  O_5
REMARK                            x       y       z     vdW  Elec       q    Type
REMARK                         _______ _______ _______ _____ _____    ______ ____
ROOT
ATOM      1  P   UNL     1      18.315  17.083   4.346  0.00  0.00    +0.470 P 
ATOM      2  O   UNL     1      18.249  18.410   5.091  0.00  0.00    -0.228 OA
ENDROOT
BRANCH   1   3
ATOM      3  O   UNL     1      17.767  16.259   5.765  0.00  0.00    -0.303 OA
ATOM      4  H   UNL     1      16.892  16.594   6.016  0.00  0.00    +0.222 HD
ENDBRANCH   1   3
BRANCH   1   5
ATOM      5  O   UNL     1      18.862  17.907   2.927  0.00  0.00    -0.303 OA
ATOM      6  H   UNL     1      18.121  18.390   2.528  0.00  0.00    +0.222 HD
ENDBRANCH   1   5
BRANCH   1   7
ATOM      7  O   UNL     1      19.809  16.500   4.584  0.00  0.00    -0.303 OA
ATOM      8  H   UNL     1      19.818  15.948   5.381  0.00  0.00    +0.222 HD
ENDBRANCH   1   7
TORSDOF 3
ENDMDL
MODEL 7
REMARK minimizedAffinity -3.22812676
REMARK minimizedRMSD -1
REMARK  Name = 
REMARK  3 active torsions:
REMARK  status: ('A' for Active; 'I' for Inactive)
REMARK    1  A    between atoms: O_1  and  P_2
REMARK    2  A    between atoms: P_2  and  O_4
REMARK    3  A    between atoms: P_2  and  O_5
REMARK                            x       y       z     vdW  Elec       q    Type
REMARK                         _______ _______ _______ _____ _____    ______ ____
ROOT
ATOM      1  P   UNL     1       9.022  27.790   8.490  0.00  0.00    +0.470 P 
ATOM      2  O   UNL     1       8.025  28.044   9.612  0.00  0.00    -0.228 OA
ENDROOT
BRANCH   1   3
ATOM      3  O   UNL     1       9.705  26.482   9.393  0.00  0.00    -0.303 OA
ATOM      4  H   UNL     1       9.025  25.810   9.553  0.00  0.00    +0.222 HD
ENDBRANCH   1   3
BRANCH   1   5
ATOM      5  O   UNL     1       8.339  29.098   7.588  0.00  0.00    -0.303 OA
ATOM      6  H   UNL     1       7.478  28.830   7.232  0.00  0.00    +0.222 HD
ENDBRANCH   1   5
BRANCH   1   7
ATOM      7  O   UNL     1      10.323  28.699   8.823  0.00  0.00    -0.303 OA
ATOM      8  H   UNL     1      10.943  28.189   9.366  0.00  0.00    +0.222 HD
ENDBRANCH   1   7
TORSDOF 3
ENDMDL
MODEL 8
REMARK minimizedAffinity -3.20619559
REMARK minimizedRMSD -1
REMARK  Name = 
REMARK  3 active torsions:
REMARK  status: ('A' for Active; 'I' for Inactive)
REMARK    1  A    between atoms: O_1  and  P_2
REMARK    2  A    between atoms: P_2  and  O_4
REMARK    3  A    between atoms: P_2  and  O_5
REMARK                            x       y       z     vdW  Elec       q    Type
REMARK                         _______ _______ _______ _____ _____    ______ ____
ROOT
ATOM      1  P   UNL     1      17.184  18.339   2.575  0.00  0.00    +0.470 P 
ATOM      2  O   UNL     1      16.746  17.376   3.670  0.00  0.00    -0.228 OA
ENDROOT
BRANCH   1   3
ATOM      3  O   UNL     1      15.533  18.772   2.295  0.00  0.00    -0.303 OA
ATOM      4  H   UNL     1      15.156  19.150   3.104  0.00  0.00    +0.222 HD
ENDBRANCH   1   3
BRANCH   1   5
ATOM      5  O   UNL     1      18.835  17.905   2.856  0.00  0.00    -0.303 OA
ATOM      6  H   UNL     1      19.137  18.305   3.686  0.00  0.00    +0.222 HD
ENDBRANCH   1   5
BRANCH   1   7
ATOM      7  O   UNL     1      17.195  17.486   1.196  0.00  0.00    -0.303 OA
ATOM      8  H   UNL     1      16.324  17.545   0.773  0.00  0.00    +0.222 HD
ENDBRANCH   1   7
TORSDOF 3
ENDMDL
MODEL 9
REMARK minimizedAffinity -3.13576531
REMARK minimizedRMSD -1
REMARK  Name = 
REMARK  3 active torsions:
REMARK  status: ('A' for Active; 'I' for Inactive)
REMARK    1  A    between atoms: O_1  and  P_2
REMARK    2  A    between atoms: P_2  and  O_4
REMARK    3  A    between atoms: P_2  and  O_5
REMARK                            x       y       z     vdW  Elec       q    Type
REMARK                         _______ _______ _______ _____ _____    ______ ____
ROOT
ATOM      1  P   UNL     1      17.453  18.241   3.711  0.00  0.00    +0.470 P 
ATOM      2  O   UNL     1      18.051  16.848   3.566  0.00  0.00    -0.228 OA
ENDROOT
BRANCH   1   3
ATOM      3  O   UNL     1      18.142  18.694   2.190  0.00  0.00    -0.303 OA
ATOM      4  H   UNL     1      17.789  18.121   1.491  0.00  0.00    +0.222 HD
ENDBRANCH   1   3
BRANCH   1   5
ATOM      5  O   UNL     1      16.765  17.788   5.231  0.00  0.00    -0.303 OA
ATOM      6  H   UNL     1      16.010  17.198   5.081  0.00  0.00    +0.222 HD
ENDBRANCH   1   5
BRANCH   1   7
ATOM      7  O   UNL     1      18.565  19.137   4.481  0.00  0.00    -0.303 OA
ATOM      8  H   UNL     1      19.150  19.555   3.830  0.00  0.00    +0.222 HD
ENDBRANCH   1   7
TORSDOF 3
ENDMDL
