MODEL 1
REMARK minimizedAffinity -5.82225466
REMARK minimizedRMSD -1
REMARK SMILES O=C(O)c1ccccc1O
REMARK SMILES IDX 4 1 5 2 6 3 7 4 8 5 9 6 2 7 1 8 3 9 10 11
REMARK H PARENT 3 10 10 12
ROOT
ATOM      1  C   UNL     1      17.180  17.292   4.343  1.00  0.00    +0.101 A 
ATOM      2  C   UNL     1      15.815  17.226   4.664  1.00  0.00    +0.019 A 
ATOM      3  C   UNL     1      14.855  17.672   3.755  1.00  0.00    +0.001 A 
ATOM      4  C   UNL     1      15.250  18.170   2.516  1.00  0.00    +0.004 A 
ATOM      5  C   UNL     1      16.602  18.232   2.179  1.00  0.00    +0.047 A 
ATOM      6  C   UNL     1      17.563  17.798   3.096  1.00  0.00    +0.130 A 
ENDROOT
BRANCH   1   7
ATOM      7  C   UNL     1      18.147  16.798   5.362  1.00  0.00    +0.339 C 
ATOM      8  O   UNL     1      18.046  15.704   5.891  1.00  0.00    -0.246 OA
BRANCH   7   9
ATOM      9  O   UNL     1      19.102  17.691   5.702  1.00  0.00    -0.478 OA
ATOM     10  H   UNL     1      19.097  18.477   5.113  1.00  0.00    +0.297 HD
ENDBRANCH   7   9
ENDBRANCH   1   7
BRANCH   6  11
ATOM     11  O   UNL     1      18.891  17.886   2.770  1.00  0.00    -0.507 OA
ATOM     12  H   UNL     1      18.963  18.027   1.808  1.00  0.00    +0.293 HD
ENDBRANCH   6  11
TORSDOF 3
ENDMDL
MODEL 2
REMARK minimizedAffinity -5.64080381
REMARK minimizedRMSD -1
REMARK SMILES O=C(O)c1ccccc1O
REMARK SMILES IDX 4 1 5 2 6 3 7 4 8 5 9 6 2 7 1 8 3 9 10 11
REMARK H PARENT 3 10 10 12
ROOT
ATOM      1  C   UNL     1      17.355  19.079   4.198  1.00  0.00    +0.101 A 
ATOM      2  C   UNL     1      16.157  19.760   4.466  1.00  0.00    +0.019 A 
ATOM      3  C   UNL     1      15.173  19.867   3.484  1.00  0.00    +0.001 A 
ATOM      4  C   UNL     1      15.370  19.282   2.236  1.00  0.00    +0.004 A 
ATOM      5  C   UNL     1      16.550  18.593   1.959  1.00  0.00    +0.047 A 
ATOM      6  C   UNL     1      17.541  18.498   2.939  1.00  0.00    +0.130 A 
ENDROOT
BRANCH   1   7
ATOM      7  C   UNL     1      18.360  19.006   5.294  1.00  0.00    +0.339 C 
ATOM      8  O   UNL     1      18.556  17.991   5.942  1.00  0.00    -0.246 OA
BRANCH   7   9
ATOM      9  O   UNL     1      18.984  20.175   5.558  1.00  0.00    -0.478 OA
ATOM     10  H   UNL     1      18.782  20.859   4.882  1.00  0.00    +0.297 HD
ENDBRANCH   7   9
ENDBRANCH   1   7
BRANCH   6  11
ATOM     11  O   UNL     1      18.711  17.843   2.652  1.00  0.00    -0.507 OA
ATOM     12  H   UNL     1      18.575  17.311   1.846  1.00  0.00    +0.293 HD
ENDBRANCH   6  11
TORSDOF 3
ENDMDL
MODEL 3
REMARK minimizedAffinity -5.39412785
REMARK minimizedRMSD -1
REMARK SMILES O=C(O)c1ccccc1O
REMARK SMILES IDX 4 1 5 2 6 3 7 4 8 5 9 6 2 7 1 8 3 9 10 11
REMARK H PARENT 3 10 10 12
ROOT
ATOM      1  C   UNL     1      11.535  25.394   7.031  1.00  0.00    +0.101 A 
ATOM      2  C   UNL     1      12.331  25.809   8.110  1.00  0.00    +0.019 A 
ATOM      3  C   UNL     1      11.776  25.952   9.381  1.00  0.00    +0.001 A 
ATOM      4  C   UNL     1      10.428  25.668   9.587  1.00  0.00    +0.004 A 
ATOM      5  C   UNL     1       9.627  25.245   8.526  1.00  0.00    +0.047 A 
ATOM      6  C   UNL     1      10.182  25.115   7.251  1.00  0.00    +0.130 A 
ENDROOT
BRANCH   1   7
ATOM      7  C   UNL     1      12.197  25.263   5.703  1.00  0.00    +0.339 C 
ATOM      8  O   UNL     1      11.718  24.612   4.790  1.00  0.00    -0.246 OA
BRANCH   7   9
ATOM      9  O   UNL     1      13.403  25.865   5.620  1.00  0.00    -0.478 OA
ATOM     10  H   UNL     1      13.590  26.424   6.406  1.00  0.00    +0.297 HD
ENDBRANCH   7   9
ENDBRANCH   1   7
BRANCH   6  11
ATOM     11  O   UNL     1       9.384  24.724   6.207  1.00  0.00    -0.507 OA
ATOM     12  H   UNL     1       8.561  24.350   6.573  1.00  0.00    +0.293 HD
ENDBRANCH   6  11
TORSDOF 3
ENDMDL
MODEL 4
REMARK minimizedAffinity -5.3764596
REMARK minimizedRMSD -1
REMARK SMILES O=C(O)c1ccccc1O
REMARK SMILES IDX 4 1 5 2 6 3 7 4 8 5 9 6 2 7 1 8 3 9 10 11
REMARK H PARENT 3 10 10 12
ROOT
ATOM      1  C   UNL     1      16.668  18.779   2.904  1.00  0.00    +0.101 A 
ATOM      2  C   UNL     1      15.628  19.212   2.066  1.00  0.00    +0.019 A 
ATOM      3  C   UNL     1      14.710  20.161   2.516  1.00  0.00    +0.001 A 
ATOM      4  C   UNL     1      14.834  20.696   3.796  1.00  0.00    +0.004 A 
ATOM      5  C   UNL     1      15.869  20.284   4.635  1.00  0.00    +0.047 A 
ATOM      6  C   UNL     1      16.779  19.323   4.188  1.00  0.00    +0.130 A 
ENDROOT
BRANCH   1   7
ATOM      7  C   UNL     1      17.609  17.764   2.356  1.00  0.00    +0.339 C 
ATOM      8  O   UNL     1      17.247  16.848   1.637  1.00  0.00    -0.246 OA
BRANCH   7   9
ATOM      9  O   UNL     1      18.885  17.900   2.781  1.00  0.00    -0.478 OA
ATOM     10  H   UNL     1      19.021  18.741   3.270  1.00  0.00    +0.297 HD
ENDBRANCH   7   9
ENDBRANCH   1   7
BRANCH   6  11
ATOM     11  O   UNL     1      17.778  18.901   5.027  1.00  0.00    -0.507 OA
ATOM     12  H   UNL     1      17.850  19.538   5.763  1.00  0.00    +0.293 HD
ENDBRANCH   6  11
TORSDOF 3
ENDMDL
MODEL 5
REMARK minimizedAffinity -5.36027765
REMARK minimizedRMSD -1
REMARK SMILES O=C(O)c1ccccc1O
REMARK SMILES IDX 4 1 5 2 6 3 7 4 8 5 9 6 2 7 1 8 3 9 10 11
REMARK H PARENT 3 10 10 12
ROOT
ATOM      1  C   UNL     1      15.237  20.636   4.245  1.00  0.00    +0.101 A 
ATOM      2  C   UNL     1      14.877  20.598   2.889  1.00  0.00    +0.019 A 
ATOM      3  C   UNL     1      14.802  19.380   2.213  1.00  0.00    +0.001 A 
ATOM      4  C   UNL     1      15.069  18.193   2.889  1.00  0.00    +0.004 A 
ATOM      5  C   UNL     1      15.417  18.213   4.240  1.00  0.00    +0.047 A 
ATOM      6  C   UNL     1      15.506  19.435   4.912  1.00  0.00    +0.130 A 
ENDROOT
BRANCH   1   7
ATOM      7  C   UNL     1      15.297  21.971   4.900  1.00  0.00    +0.339 C 
ATOM      8  O   UNL     1      14.993  22.146   6.069  1.00  0.00    -0.246 OA
BRANCH   7   9
ATOM      9  O   UNL     1      15.648  22.982   4.075  1.00  0.00    -0.478 OA
ATOM     10  H   UNL     1      15.953  22.653   3.201  1.00  0.00    +0.297 HD
ENDBRANCH   7   9
ENDBRANCH   1   7
BRANCH   6  11
ATOM     11  O   UNL     1      15.875  19.451   6.232  1.00  0.00    -0.507 OA
ATOM     12  H   UNL     1      15.789  18.547   6.586  1.00  0.00    +0.293 HD
ENDBRANCH   6  11
TORSDOF 3
ENDMDL
MODEL 6
REMARK minimizedAffinity -5.28925371
REMARK minimizedRMSD -1
REMARK SMILES O=C(O)c1ccccc1O
REMARK SMILES IDX 4 1 5 2 6 3 7 4 8 5 9 6 2 7 1 8 3 9 10 11
REMARK H PARENT 3 10 10 12
ROOT
ATOM      1  C   UNL     1      11.844  25.584   6.702  1.00  0.00    +0.101 A 
ATOM      2  C   UNL     1      10.525  26.062   6.748  1.00  0.00    +0.019 A 
ATOM      3  C   UNL     1       9.942  26.408   7.967  1.00  0.00    +0.001 A 
ATOM      4  C   UNL     1      10.677  26.295   9.145  1.00  0.00    +0.004 A 
ATOM      5  C   UNL     1      11.992  25.832   9.114  1.00  0.00    +0.047 A 
ATOM      6  C   UNL     1      12.570  25.473   7.894  1.00  0.00    +0.130 A 
ENDROOT
BRANCH   1   7
ATOM      7  C   UNL     1      12.400  25.234   5.366  1.00  0.00    +0.339 C 
ATOM      8  O   UNL     1      11.893  24.394   4.641  1.00  0.00    -0.246 OA
BRANCH   7   9
ATOM      9  O   UNL     1      13.550  25.872   5.056  1.00  0.00    -0.478 OA
ATOM     10  H   UNL     1      13.761  26.581   5.702  1.00  0.00    +0.297 HD
ENDBRANCH   7   9
ENDBRANCH   1   7
BRANCH   6  11
ATOM     11  O   UNL     1      13.854  24.993   7.873  1.00  0.00    -0.507 OA
ATOM     12  H   UNL     1      14.275  25.206   8.726  1.00  0.00    +0.293 HD
ENDBRANCH   6  11
TORSDOF 3
ENDMDL
MODEL 7
REMARK minimizedAffinity -5.17223644
REMARK minimizedRMSD -1
REMARK SMILES O=C(O)c1ccccc1O
REMARK SMILES IDX 4 1 5 2 6 3 7 4 8 5 9 6 2 7 1 8 3 9 10 11
REMARK H PARENT 3 10 10 12
ROOT
ATOM      1  C   UNL     1      10.471  26.573   8.335  1.00  0.00    +0.101 A 
ATOM      2  C   UNL     1      11.717  26.583   8.981  1.00  0.00    +0.019 A 
ATOM      3  C   UNL     1      12.670  25.607   8.691  1.00  0.00    +0.001 A 
ATOM      4  C   UNL     1      12.392  24.626   7.743  1.00  0.00    +0.004 A 
ATOM      5  C   UNL     1      11.162  24.609   7.084  1.00  0.00    +0.047 A 
ATOM      6  C   UNL     1      10.204  25.579   7.386  1.00  0.00    +0.130 A 
ENDROOT
BRANCH   1   7
ATOM      7  C   UNL     1       9.504  27.646   8.696  1.00  0.00    +0.339 C 
ATOM      8  O   UNL     1       8.408  27.412   9.178  1.00  0.00    -0.246 OA
BRANCH   7   9
ATOM      9  O   UNL     1       9.913  28.894   8.379  1.00  0.00    -0.478 OA
ATOM     10  H   UNL     1      10.852  28.911   8.094  1.00  0.00    +0.297 HD
ENDBRANCH   7   9
ENDBRANCH   1   7
BRANCH   6  11
ATOM     11  O   UNL     1       8.987  25.542   6.756  1.00  0.00    -0.507 OA
ATOM     12  H   UNL     1       9.061  24.955   5.981  1.00  0.00    +0.293 HD
ENDBRANCH   6  11
TORSDOF 3
ENDMDL
MODEL 8
REMARK minimizedAffinity -5.16671181
REMARK minimizedRMSD -1
REMARK SMILES O=C(O)c1ccccc1O
REMARK SMILES IDX 4 1 5 2 6 3 7 4 8 5 9 6 2 7 1 8 3 9 10 11
REMARK H PARENT 3 10 10 12
ROOT
ATOM      1  C   UNL     1      17.134  19.164   4.297  1.00  0.00    +0.101 A 
ATOM      2  C   UNL     1      16.998  18.278   3.217  1.00  0.00    +0.019 A 
ATOM      3  C   UNL     1      15.937  18.415   2.323  1.00  0.00    +0.001 A 
ATOM      4  C   UNL     1      15.015  19.445   2.491  1.00  0.00    +0.004 A 
ATOM      5  C   UNL     1      15.144  20.340   3.553  1.00  0.00    +0.047 A 
ATOM      6  C   UNL     1      16.199  20.193   4.456  1.00  0.00    +0.130 A 
ENDROOT
BRANCH   1   7
ATOM      7  C   UNL     1      18.292  18.957   5.211  1.00  0.00    +0.339 C 
ATOM      8  O   UNL     1      18.531  17.884   5.740  1.00  0.00    -0.246 OA
BRANCH   7   9
ATOM      9  O   UNL     1      19.011  20.073   5.460  1.00  0.00    -0.478 OA
ATOM     10  H   UNL     1      18.745  20.819   4.880  1.00  0.00    +0.297 HD
ENDBRANCH   7   9
ENDBRANCH   1   7
BRANCH   6  11
ATOM     11  O   UNL     1      16.305  21.059   5.513  1.00  0.00    -0.507 OA
ATOM     12  H   UNL     1      15.735  21.831   5.337  1.00  0.00    +0.293 HD
ENDBRANCH   6  11
TORSDOF 3
ENDMDL
MODEL 9
REMARK minimizedAffinity -5.14511299
REMARK minimizedRMSD -1
REMARK SMILES O=C(O)c1ccccc1O
REMARK SMILES IDX 4 1 5 2 6 3 7 4 8 5 9 6 2 7 1 8 3 9 10 11
REMARK H PARENT 3 10 10 12
ROOT
ATOM      1  C   UNL     1      15.002  20.232   4.540  1.00  0.00    +0.101 A 
ATOM      2  C   UNL     1      15.219  18.905   4.942  1.00  0.00    +0.019 A 
ATOM      3  C   UNL     1      15.221  17.875   4.002  1.00  0.00    +0.001 A 
ATOM      4  C   UNL     1      15.023  18.165   2.654  1.00  0.00    +0.004 A 
ATOM      5  C   UNL     1      14.817  19.480   2.238  1.00  0.00    +0.047 A 
ATOM      6  C   UNL     1      14.802  20.509   3.183  1.00  0.00    +0.130 A 
ENDROOT
BRANCH   1   7
ATOM      7  C   UNL     1      15.014  21.279   5.599  1.00  0.00    +0.339 C 
ATOM      8  O   UNL     1      14.048  21.984   5.840  1.00  0.00    -0.246 OA
BRANCH   7   9
ATOM      9  O   UNL     1      16.204  21.430   6.220  1.00  0.00    -0.478 OA
ATOM     10  H   UNL     1      16.838  20.720   5.976  1.00  0.00    +0.297 HD
ENDBRANCH   7   9
ENDBRANCH   1   7
BRANCH   6  11
ATOM     11  O   UNL     1      14.572  21.796   2.772  1.00  0.00    -0.507 OA
ATOM     12  H   UNL     1      14.693  21.836   1.805  1.00  0.00    +0.293 HD
ENDBRANCH   6  11
TORSDOF 3
ENDMDL
