          AutoDock 4.2 Release 4.2.6   
         (C) 1989-2012 The Scripps Research Institute
        AutoDock comes with ABSOLUTELY NO WARRANTY.
        AutoDock is free software, and you are welcome
        to redistribute it under certain conditions;
        for details type 'autodock4 -C'

                     main.cc  $Revision: 1.213 $

                   Compiled on Dec 11 2024 at 15:52:35


This file was created at:			0:21 51" a.m., 09/14/2026
                   on host:		"VP"
Current Working Directory = "/home/vishishtaapandit28/docking-pipeline-project/results/1HSG/ad4_grids"

      ________________________________________________________________

                   SETTING UP DEFAULT PARAMETER LIBRARY
      ________________________________________________________________


Random number generator was seeded with values 99425, 1789325511.
Docking parameter file (DPF) used for this docking:		ascorbic_acid.dpf
DPF> autodock_parameter_version 4.2

	Autodock parameter version 4.2.
DPF> outlev 1

Output Level = 1  ADT-COMPATIBLE OUTPUT DURING DOCKING.
DPF> intelec

Electrostatic energies will be calculated for all non-bonds between moving atoms.
DPF> seed pid time

Random number generator was seeded with values 99425, 1789325511.
DPF> ligand_types C HD OA

DPF> fld receptor.maps.fld

Opening Grid Map Dimensions file:		receptor.maps.fld
Grid Point Spacing =				0.375 Angstroms

Even Number of User-specified Grid Points =	62 x-points
						48 y-points
						46 z-points

Coordinates of Central Grid Point of Maps =	(13.073, 22.467, 5.557)
Macromolecule file used to create Grid Maps =	receptor.pdbqt
Grid Parameter file used to create Grid Maps =	receptor.gpf
Minimum coordinates in grid = (1.448, 13.467, -3.068)
Maximum coordinates in grid = (24.698, 31.467, 14.182)

DPF> map receptor.C.map

DPF> map receptor.HD.map

DPF> map receptor.OA.map

DPF> elecmap receptor.e.map

DPF> desolvmap receptor.d.map

DPF> move ascorbic_acid.pdbqt

1,4-interactions will be _ignored_ in the non-bonded internal energy calculation.

Ligand PDBQT file = "ascorbic_acid.pdbqt"

INPUT LIGAND PDBQT FILE:
________________________

INPUT-LIGAND-PDBQT: REMARK SMILES O=C1O[C@@H]([C@@H](O)CO)C(O)=C1O
INPUT-LIGAND-PDBQT: REMARK SMILES IDX 5 1 4 2 9 3 11 4 2 5 3 6 1 7 10 8 12 10 6 12 7 14 8 15
INPUT-LIGAND-PDBQT: REMARK H PARENT 10 9 12 11 6 13 8 16
INPUT-LIGAND-PDBQT: ROOT
INPUT-LIGAND-PDBQT: ATOM      1  C   UNL     1       2.724   2.219  -0.772  1.00  0.00    +0.188 C 
INPUT-LIGAND-PDBQT: ENDROOT
INPUT-LIGAND-PDBQT: BRANCH   1   2
INPUT-LIGAND-PDBQT: ATOM      2  C   UNL     1       3.088   1.128   0.258  1.00  0.00    +0.277 C 
INPUT-LIGAND-PDBQT: ATOM      3  C   UNL     1       2.307  -0.132   0.135  1.00  0.00    +0.186 C 
INPUT-LIGAND-PDBQT: ATOM      4  C   UNL     1       3.093  -1.171  -0.133  1.00  0.00    +0.244 C 
INPUT-LIGAND-PDBQT: ATOM      5  C   UNL     1       4.472  -0.647  -0.205  1.00  0.00    +0.377 C 
INPUT-LIGAND-PDBQT: ATOM      6  O   UNL     1       4.443   0.696   0.047  1.00  0.00    -0.445 OA
INPUT-LIGAND-PDBQT: ATOM      7  O   UNL     1       5.479  -1.292  -0.427  1.00  0.00    -0.242 OA
INPUT-LIGAND-PDBQT: BRANCH   3   8
INPUT-LIGAND-PDBQT: ATOM      8  O   UNL     1       0.954  -0.142   0.337  1.00  0.00    -0.505 OA
INPUT-LIGAND-PDBQT: ATOM      9  H   UNL     1       0.557  -0.890  -0.140  1.00  0.00    +0.293 HD
INPUT-LIGAND-PDBQT: ENDBRANCH   3   8
INPUT-LIGAND-PDBQT: BRANCH   4  10
INPUT-LIGAND-PDBQT: ATOM     10  O   UNL     1       2.755  -2.487  -0.262  1.00  0.00    -0.499 OA
INPUT-LIGAND-PDBQT: ATOM     11  H   UNL     1       1.859  -2.617   0.086  1.00  0.00    +0.294 HD
INPUT-LIGAND-PDBQT: ENDBRANCH   4  10
INPUT-LIGAND-PDBQT: ENDBRANCH   1   2
INPUT-LIGAND-PDBQT: BRANCH   1  12
INPUT-LIGAND-PDBQT: ATOM     12  O   UNL     1       1.377   2.682  -0.604  1.00  0.00    -0.386 OA
INPUT-LIGAND-PDBQT: ATOM     13  H   UNL     1       1.318   3.147   0.251  1.00  0.00    +0.211 HD
INPUT-LIGAND-PDBQT: ENDBRANCH   1  12
INPUT-LIGAND-PDBQT: BRANCH   1  14
INPUT-LIGAND-PDBQT: ATOM     14  C   UNL     1       3.684   3.418  -0.670  1.00  0.00    +0.192 C 
INPUT-LIGAND-PDBQT: BRANCH  14  15
INPUT-LIGAND-PDBQT: ATOM     15  O   UNL     1       3.315   4.468  -1.563  1.00  0.00    -0.394 OA
INPUT-LIGAND-PDBQT: ATOM     16  H   UNL     1       2.902   4.067  -2.349  1.00  0.00    +0.210 HD
INPUT-LIGAND-PDBQT: ENDBRANCH  14  15
INPUT-LIGAND-PDBQT: ENDBRANCH   1  14
INPUT-LIGAND-PDBQT: TORSDOF 6
________________________________________________________________________________

Total charge on ligand                               =	+0.001 e
REMARK SMILES O=C1O[C@@H]([C@@H](O)CO)C(O)=C1O
REMARK SMILES IDX 5 1 4 2 9 3 11 4 2 5 3 6 1 7 10 8 12 10 6 12 7 14 8 15
REMARK H PARENT 10 9 12 11 6 13 8 16


Number of Rotatable Bonds in Small Molecule =	6 torsions
Number of atoms in ligand:  16

Number of non-hydrogen atoms in ligand:  12

Number of vibrational degrees of freedom of ligand:  42


Number of torsional degrees of freedom = 6
Estimated loss of torsional free energy upon binding = +1.7898 kcal/mol


DPF> about 2.7704375 0.7779375 -0.3756875

Small molecule center of rotation =	(+2.770, +0.778, -0.376)

DPF> tran0 random

Initial translation =			(12.511, 28.142, 5.424) Angstroms
DPF> quat0 random

Each run will begin with a new, random initial orientation.
Initial quaternion,  (x,y,z,w) =	( -0.359, -0.750, 0.169, -0.529 ),
DPF> dihe0 random

DPF> tstep 2.0

Initial simanneal cycle, maximum translation step = +/- 2.0 Angstroms
DPF> qstep 50.0

Initial simanneal cycle, maximum quaternion angle step = +/- 50.0 deg
DPF> dstep 50.0

Initial simanneal cycle, maximum torsion angle step = +/- 50.0 deg
DPF> torsdof 6

Number of torsional degrees of freedom = 6
Free energy coefficient for torsional degrees of freedom = 0.2983, the factory default value.

Estimated loss of torsional free energy upon binding = +1.7898 kcal/mol

DPF> rmstol 2.0

Maximum RMS tolerance for conformational cluster analysis = 2.00 Angstroms
DPF> extnrg 1000.0

External grid energy (beyond grid map walls) = 1000.00

DPF> e0max 0.0 10000

Using user-specified maximum number of retries for simanneal initialization, 10000 retries.
If the simanneal initial energy is greater than e0max, 0.000,
then a new, random initial state will be created.

DPF> ga_pop_size 150

A population of 150 individuals will be used
DPF> ga_num_evals 2500000

There will be at most 2500000 function evaluations used.
DPF> ga_num_generations 27000

The GA will run for at most 27000 generations.
DPF> ga_elitism 1

The 1 best will be preserved each GA generation.
DPF> ga_mutation_rate 0.02

The mutation rate is 0.020000.
DPF> ga_crossover_rate 0.8

The crossover rate is 0.800000.
DPF> ga_window_size 10

The GA's selection window is 10 generations.
DPF> ga_cauchy_alpha 0.0

The alpha parameter (for the Cauchy distribution) is being set to 0.000000.
DPF> ga_cauchy_beta 1.0

The beta parameter (for the Cauchy distribution) is being set to 1.000000.
DPF> set_ga

DPF> sw_max_its 300

Solis & Wets algorithms will perform at most 300 iterations.
DPF> sw_max_succ 4

Solis & Wets algorithms expand rho every 4 in a row successes.
DPF> sw_max_fail 4

Solis & Wets algorithms contract rho every 4 in a row failures.
DPF> sw_rho 1.0

rho is set to 1.000000.
DPF> sw_lb_rho 0.01

rho will never get smaller than 0.010000.
DPF> ls_search_freq 0.06

Local search will be performed with frequency 0.060000.
DPF> set_psw1

Creating a new Local Search object using the pseudo-Solis-Wets algorithm (pSW1) with the current settings.

DPF> unbound_model bound

DPF> ga_run 10

centering ligand on specified point: 2.770 0.778 -0.376
Furthest true ligand atom from "about" center is 3.914 Angstroms (maxrad).
Number of requested GA dockings = 10 runs
Unbound model to be used is 'same as bound' [AutoDock 4.2 default].

	BEGINNING GENETIC ALGORITHM DOCKING 1 of 10
Run: 1 Seed: 926109013 1138154093 [ Run 1 of 10 GA/GALS ]
Beginning LAMARCKIAN GENETIC ALGORITHM (LGA), with a maximum of 2500000 energy evaluations.

Final-Value: -8.493


	FINAL GENETIC ALGORITHM DOCKED STATE
	_______________________________________________


Detailed state:  trans 9.627 26.949 5.852 quatxyzw -0.656692 0.009256 0.721784 -0.218396 center 2.770 0.778 -0.376 ntor 6 -69.9403 -141.5696 35.3416 20.7943 100.0313 -103.8253
State:	  9.627  26.949   5.852  -0.673  0.009  0.740 -154.770    -69.94 -141.57   35.34   20.79  100.03 -103.83

DOCKED: MODEL        1
DOCKED: USER    Run = 1
DOCKED: USER    DPF = ascorbic_acid.dpf
DOCKED: USER  
DOCKED: USER    Estimated Free Energy of Binding    =   -3.62 kcal/mol  [=(1)+(2)+(3)-(4)]
DOCKED: USER    Estimated Inhibition Constant, Ki   =    2.23 mM (millimolar)  [Temperature = 298.15 K]
DOCKED: USER    
DOCKED: USER    (1) Final Intermolecular Energy     =   -5.41 kcal/mol
DOCKED: USER        vdW + Hbond + desolv Energy     =   -4.95 kcal/mol
DOCKED: USER        Electrostatic Energy            =   -0.46 kcal/mol
DOCKED: USER    (2) Final Total Internal Energy     =   -3.09 kcal/mol
DOCKED: USER    (3) Torsional Free Energy           =   +1.79 kcal/mol
DOCKED: USER    (4) Unbound System's Energy  [=(2)] =   -3.09 kcal/mol
DOCKED: USER    
DOCKED: USER    
DOCKED: USER    NEWDPF move ascorbic_acid.pdbqt
DOCKED: USER    NEWDPF about 2.770437 0.777937 -0.375688
DOCKED: USER    NEWDPF tran0 9.626768 26.949391 5.851600
DOCKED: USER    NEWDPF quaternion0 -0.656692 0.009256 0.721784 -0.218396
DOCKED: USER    NEWDPF axisangle0 -0.672937 0.009485 0.739639 -154.770268
DOCKED: USER    NEWDPF quat0 -0.672937 0.009485 0.739639 -154.770268
DOCKED: USER    NEWDPF dihe0 -69.94 -141.57 35.34 20.79 100.03 -103.83 
DOCKED: USER  keepresnum = 1 
DOCKED: USER  
DOCKED: REMARK SMILES O=C1O[C@@H]([C@@H](O)CO)C(O)=C1O
DOCKED: REMARK SMILES IDX 5 1 4 2 9 3 11 4 2 5 3 6 1 7 10 8 12 10 6 12 7 14 8 15
DOCKED: REMARK H PARENT 10 9 12 11 6 13 8 16
DOCKED: USER                              x       y       z     vdW  Elec       q    Type
DOCKED: USER                           _______ _______ _______ _____ _____    ______ ____
DOCKED: ROOT
DOCKED: ATOM      1  C   UNL     1       9.531  25.513   5.447 -0.21 -0.07    +0.188 C 
DOCKED: ENDROOT
DOCKED: BRANCH   1   2
DOCKED: ATOM      2  C   UNL     1       8.901  26.919   5.541 -0.22 -0.10    +0.277 C 
DOCKED: ATOM      3  C   UNL     1       7.554  26.959   6.171 -0.24 -0.07    +0.186 C 
DOCKED: ATOM      4  C   UNL     1       7.553  27.699   7.277 -0.31 -0.10    +0.244 C 
DOCKED: ATOM      5  C   UNL     1       8.931  28.203   7.447 -0.26 -0.12    +0.377 C 
DOCKED: ATOM      6  O   UNL     1       9.693  27.749   6.407 -0.56 +0.10    -0.445 OA
DOCKED: ATOM      7  O   UNL     1       9.332  28.921   8.342 -0.91 +0.07    -0.242 OA
DOCKED: BRANCH   3   8
DOCKED: ATOM      8  O   UNL     1       6.489  26.325   5.593 -0.04 +0.14    -0.505 OA
DOCKED: ATOM      9  H   UNL     1       6.474  25.393   5.866 -0.44 -0.15    +0.293 HD
DOCKED: ENDBRANCH   3   8
DOCKED: BRANCH   4  10
DOCKED: ATOM     10  O   UNL     1       6.505  28.014   8.093 -0.14 +0.26    -0.499 OA
DOCKED: ATOM     11  H   UNL     1       6.709  28.838   8.561 -0.36 -0.34    +0.294 HD
DOCKED: ENDBRANCH   4  10
DOCKED: ENDBRANCH   1   2
DOCKED: BRANCH   1  12
DOCKED: ATOM     12  O   UNL     1       9.278  24.736   6.626 -0.12 +0.13    -0.386 OA
DOCKED: ATOM     13  H   UNL     1       8.559  24.107   6.429 -0.48 -0.11    +0.211 HD
DOCKED: ENDBRANCH   1  12
DOCKED: BRANCH   1  14
DOCKED: ATOM     14  C   UNL     1       9.002  24.750   4.219 -0.18 -0.05    +0.192 C 
DOCKED: BRANCH  14  15
DOCKED: ATOM     15  O   UNL     1       7.683  24.250   4.436 -0.10 +0.11    -0.394 OA
DOCKED: ATOM     16  H   UNL     1       7.468  24.358   5.380 -0.39 -0.14    +0.210 HD
DOCKED: ENDBRANCH  14  15
DOCKED: ENDBRANCH   1  14
DOCKED: TORSDOF 6
DOCKED: TER
DOCKED: ENDMDL
________________________________________________________________________________


	BEGINNING GENETIC ALGORITHM DOCKING 2 of 10
Run: 2 Seed: 1021857870 1750798141 [ Run 2 of 10 GA/GALS ]
Beginning LAMARCKIAN GENETIC ALGORITHM (LGA), with a maximum of 2500000 energy evaluations.

Final-Value: -7.581


	FINAL GENETIC ALGORITHM DOCKED STATE
	_______________________________________________


Detailed state:  trans 10.539 26.245 8.881 quatxyzw 0.855790 -0.072404 -0.257567 0.442765 center 2.770 0.778 -0.376 ntor 6 -89.4191 179.8766 83.0648 35.4551 74.1809 -120.0710
State:	 10.539  26.245   8.881   0.954 -0.081 -0.287 127.439    -89.42  179.88   83.06   35.46   74.18 -120.07

DOCKED: MODEL        2
DOCKED: USER    Run = 2
DOCKED: USER    DPF = ascorbic_acid.dpf
DOCKED: USER  
DOCKED: USER    Estimated Free Energy of Binding    =   -3.01 kcal/mol  [=(1)+(2)+(3)-(4)]
DOCKED: USER    Estimated Inhibition Constant, Ki   =    6.18 mM (millimolar)  [Temperature = 298.15 K]
DOCKED: USER    
DOCKED: USER    (1) Final Intermolecular Energy     =   -4.80 kcal/mol
DOCKED: USER        vdW + Hbond + desolv Energy     =   -4.51 kcal/mol
DOCKED: USER        Electrostatic Energy            =   -0.29 kcal/mol
DOCKED: USER    (2) Final Total Internal Energy     =   -2.78 kcal/mol
DOCKED: USER    (3) Torsional Free Energy           =   +1.79 kcal/mol
DOCKED: USER    (4) Unbound System's Energy  [=(2)] =   -2.78 kcal/mol
DOCKED: USER    
DOCKED: USER    
DOCKED: USER    NEWDPF move ascorbic_acid.pdbqt
DOCKED: USER    NEWDPF about 2.770437 0.777937 -0.375688
DOCKED: USER    NEWDPF tran0 10.538642 26.244561 8.881126
DOCKED: USER    NEWDPF quaternion0 0.855790 -0.072404 -0.257567 0.442765
DOCKED: USER    NEWDPF axisangle0 0.954443 -0.080751 -0.287258 127.439168
DOCKED: USER    NEWDPF quat0 0.954443 -0.080751 -0.287258 127.439168
DOCKED: USER    NEWDPF dihe0 -89.42 179.88 83.06 35.46 74.18 -120.07 
DOCKED: USER  keepresnum = 1 
DOCKED: USER  
DOCKED: REMARK SMILES O=C1O[C@@H]([C@@H](O)CO)C(O)=C1O
DOCKED: REMARK SMILES IDX 5 1 4 2 9 3 11 4 2 5 3 6 1 7 10 8 12 10 6 12 7 14 8 15
DOCKED: REMARK H PARENT 10 9 12 11 6 13 8 16
DOCKED: USER                              x       y       z     vdW  Elec       q    Type
DOCKED: USER                           _______ _______ _______ _____ _____    ______ ____
DOCKED: ROOT
DOCKED: ATOM      1  C   UNL     1      10.141  25.064   8.055 -0.31 -0.04    +0.188 C 
DOCKED: ENDROOT
DOCKED: BRANCH   1   2
DOCKED: ATOM      2  C   UNL     1      10.449  26.572   8.167 -0.24 -0.08    +0.277 C 
DOCKED: ATOM      3  C   UNL     1       9.611  27.447   7.303 -0.33 -0.05    +0.186 C 
DOCKED: ATOM      4  C   UNL     1       8.887  28.299   8.024 -0.40 -0.09    +0.244 C 
DOCKED: ATOM      5  C   UNL     1       9.211  28.031   9.440 -0.30 -0.12    +0.377 C 
DOCKED: ATOM      6  O   UNL     1      10.141  27.031   9.495 -0.13 +0.10    -0.445 OA
DOCKED: ATOM      7  O   UNL     1       8.754  28.610  10.407 -0.43 +0.09    -0.242 OA
DOCKED: BRANCH   3   8
DOCKED: ATOM      8  O   UNL     1       9.674  27.354   5.940 -0.46 +0.16    -0.505 OA
DOCKED: ATOM      9  H   UNL     1       9.337  26.489   5.654 +0.16 -0.11    +0.293 HD
DOCKED: ENDBRANCH   3   8
DOCKED: BRANCH   4  10
DOCKED: ATOM     10  O   UNL     1       8.048  29.284   7.593 -0.38 +0.39    -0.499 OA
DOCKED: ATOM     11  H   UNL     1       7.504  29.583   8.338 -0.31 -0.51    +0.294 HD
DOCKED: ENDBRANCH   4  10
DOCKED: ENDBRANCH   1   2
DOCKED: BRANCH   1  12
DOCKED: ATOM     12  O   UNL     1       8.760  24.780   8.321 -0.22 +0.10    -0.386 OA
DOCKED: ATOM     13  H   UNL     1       8.503  23.996   7.802 -0.31 -0.08    +0.211 HD
DOCKED: ENDBRANCH   1  12
DOCKED: BRANCH   1  14
DOCKED: ATOM     14  C   UNL     1      10.503  24.528   6.657 -0.25 -0.05    +0.192 C 
DOCKED: BRANCH  14  15
DOCKED: ATOM     15  O   UNL     1       9.346  24.358   5.841 -0.12 +0.12    -0.394 OA
DOCKED: ATOM     16  H   UNL     1       8.573  24.685   6.336 -0.47 -0.10    +0.210 HD
DOCKED: ENDBRANCH  14  15
DOCKED: ENDBRANCH   1  14
DOCKED: TORSDOF 6
DOCKED: TER
DOCKED: ENDMDL
________________________________________________________________________________


	BEGINNING GENETIC ALGORITHM DOCKING 3 of 10
Run: 3 Seed: 1057190222 1226092912 [ Run 3 of 10 GA/GALS ]
Beginning LAMARCKIAN GENETIC ALGORITHM (LGA), with a maximum of 2500000 energy evaluations.

Final-Value: -6.959


	FINAL GENETIC ALGORITHM DOCKED STATE
	_______________________________________________


Detailed state:  trans 14.277 23.966 6.943 quatxyzw 0.588532 0.560670 -0.573757 0.100412 center 2.770 0.778 -0.376 ntor 6 -46.6084 -163.4183 -36.0466 150.7389 108.3179 -166.3720
State:	 14.277  23.966   6.943   0.592  0.564 -0.577 168.474    -46.61 -163.42  -36.05  150.74  108.32 -166.37

DOCKED: MODEL        3
DOCKED: USER    Run = 3
DOCKED: USER    DPF = ascorbic_acid.dpf
DOCKED: USER  
DOCKED: USER    Estimated Free Energy of Binding    =   -2.63 kcal/mol  [=(1)+(2)+(3)-(4)]
DOCKED: USER    Estimated Inhibition Constant, Ki   =   11.85 mM (millimolar)  [Temperature = 298.15 K]
DOCKED: USER    
DOCKED: USER    (1) Final Intermolecular Energy     =   -4.42 kcal/mol
DOCKED: USER        vdW + Hbond + desolv Energy     =   -3.85 kcal/mol
DOCKED: USER        Electrostatic Energy            =   -0.57 kcal/mol
DOCKED: USER    (2) Final Total Internal Energy     =   -2.54 kcal/mol
DOCKED: USER    (3) Torsional Free Energy           =   +1.79 kcal/mol
DOCKED: USER    (4) Unbound System's Energy  [=(2)] =   -2.54 kcal/mol
DOCKED: USER    
DOCKED: USER    
DOCKED: USER    NEWDPF move ascorbic_acid.pdbqt
DOCKED: USER    NEWDPF about 2.770437 0.777937 -0.375688
DOCKED: USER    NEWDPF tran0 14.276749 23.966180 6.942858
DOCKED: USER    NEWDPF quaternion0 0.588532 0.560670 -0.573757 0.100412
DOCKED: USER    NEWDPF axisangle0 0.591521 0.563519 -0.576671 168.474245
DOCKED: USER    NEWDPF quat0 0.591521 0.563519 -0.576671 168.474245
DOCKED: USER    NEWDPF dihe0 -46.61 -163.42 -36.05 150.74 108.32 -166.37 
DOCKED: USER  keepresnum = 1 
DOCKED: USER  
DOCKED: REMARK SMILES O=C1O[C@@H]([C@@H](O)CO)C(O)=C1O
DOCKED: REMARK SMILES IDX 5 1 4 2 9 3 11 4 2 5 3 6 1 7 10 8 12 10 6 12 7 14 8 15
DOCKED: REMARK H PARENT 10 9 12 11 6 13 8 16
DOCKED: USER                              x       y       z     vdW  Elec       q    Type
DOCKED: USER                           _______ _______ _______ _____ _____    ______ ____
DOCKED: ROOT
DOCKED: ATOM      1  C   UNL     1      15.387  23.632   5.999 -0.32 -0.23    +0.188 C 
DOCKED: ENDROOT
DOCKED: BRANCH   1   2
DOCKED: ATOM      2  C   UNL     1      13.877  23.757   6.294 -0.19 -0.24    +0.277 C 
DOCKED: ATOM      3  C   UNL     1      12.996  23.636   5.101 -0.23 -0.14    +0.186 C 
DOCKED: ATOM      4  C   UNL     1      12.173  22.596   5.203 -0.22 -0.08    +0.244 C 
DOCKED: ATOM      5  C   UNL     1      12.469  21.952   6.500 -0.23 -0.02    +0.377 C 
DOCKED: ATOM      6  O   UNL     1      13.455  22.662   7.125 -0.10 +0.14    -0.445 OA
DOCKED: ATOM      7  O   UNL     1      11.920  20.969   6.959 -1.32 -0.11    -0.242 OA
DOCKED: BRANCH   3   8
DOCKED: ATOM      8  O   UNL     1      13.055  24.555   4.089 -0.12 +0.67    -0.505 OA
DOCKED: ATOM      9  H   UNL     1      13.464  24.152   3.305 -0.37 -0.57    +0.293 HD
DOCKED: ENDBRANCH   3   8
DOCKED: BRANCH   4  10
DOCKED: ATOM     10  O   UNL     1      11.191  22.196   4.344 -0.11 +0.11    -0.499 OA
DOCKED: ATOM     11  H   UNL     1      10.739  21.425   4.721 +0.16 -0.01    +0.294 HD
DOCKED: ENDBRANCH   4  10
DOCKED: ENDBRANCH   1   2
DOCKED: BRANCH   1  12
DOCKED: ATOM     12  O   UNL     1      15.894  22.337   6.350 -0.12 +0.27    -0.386 OA
DOCKED: ATOM     13  H   UNL     1      15.177  21.687   6.234 +0.13 -0.09    +0.211 HD
DOCKED: ENDBRANCH   1  12
DOCKED: BRANCH   1  14
DOCKED: ATOM     14  C   UNL     1      15.684  23.902   4.513 -0.23 -0.35    +0.192 C 
DOCKED: BRANCH  14  15
DOCKED: ATOM     15  O   UNL     1      15.163  22.872   3.674 -0.23 +0.56    -0.394 OA
DOCKED: ATOM     16  H   UNL     1      14.519  23.274   3.064 -0.34 -0.46    +0.210 HD
DOCKED: ENDBRANCH  14  15
DOCKED: ENDBRANCH   1  14
DOCKED: TORSDOF 6
DOCKED: TER
DOCKED: ENDMDL
________________________________________________________________________________


	BEGINNING GENETIC ALGORITHM DOCKING 4 of 10
Run: 4 Seed: 662053661 968188775 [ Run 4 of 10 GA/GALS ]
Beginning LAMARCKIAN GENETIC ALGORITHM (LGA), with a maximum of 2500000 energy evaluations.

Final-Value: -7.542


	FINAL GENETIC ALGORITHM DOCKED STATE
	_______________________________________________


Detailed state:  trans 7.874 26.892 6.002 quatxyzw 0.677407 0.220650 -0.404390 0.573499 center 2.770 0.778 -0.376 ntor 6 -96.2934 -143.3586 -123.3700 32.4212 -117.4342 -18.5716
State:	  7.874  26.892   6.002   0.827  0.269 -0.494 110.011    -96.29 -143.36 -123.37   32.42 -117.43  -18.57

DOCKED: MODEL        4
DOCKED: USER    Run = 4
DOCKED: USER    DPF = ascorbic_acid.dpf
DOCKED: USER  
DOCKED: USER    Estimated Free Energy of Binding    =   -3.53 kcal/mol  [=(1)+(2)+(3)-(4)]
DOCKED: USER    Estimated Inhibition Constant, Ki   =    2.59 mM (millimolar)  [Temperature = 298.15 K]
DOCKED: USER    
DOCKED: USER    (1) Final Intermolecular Energy     =   -5.32 kcal/mol
DOCKED: USER        vdW + Hbond + desolv Energy     =   -5.05 kcal/mol
DOCKED: USER        Electrostatic Energy            =   -0.26 kcal/mol
DOCKED: USER    (2) Final Total Internal Energy     =   -2.22 kcal/mol
DOCKED: USER    (3) Torsional Free Energy           =   +1.79 kcal/mol
DOCKED: USER    (4) Unbound System's Energy  [=(2)] =   -2.22 kcal/mol
DOCKED: USER    
DOCKED: USER    
DOCKED: USER    NEWDPF move ascorbic_acid.pdbqt
DOCKED: USER    NEWDPF about 2.770437 0.777937 -0.375688
DOCKED: USER    NEWDPF tran0 7.874218 26.892302 6.002077
DOCKED: USER    NEWDPF quaternion0 0.677407 0.220650 -0.404390 0.573499
DOCKED: USER    NEWDPF axisangle0 0.826907 0.269346 -0.493637 110.010804
DOCKED: USER    NEWDPF quat0 0.826907 0.269346 -0.493637 110.010804
DOCKED: USER    NEWDPF dihe0 -96.29 -143.36 -123.37 32.42 -117.43 -18.57 
DOCKED: USER  keepresnum = 1 
DOCKED: USER  
DOCKED: REMARK SMILES O=C1O[C@@H]([C@@H](O)CO)C(O)=C1O
DOCKED: REMARK SMILES IDX 5 1 4 2 9 3 11 4 2 5 3 6 1 7 10 8 12 10 6 12 7 14 8 15
DOCKED: REMARK H PARENT 10 9 12 11 6 13 8 16
DOCKED: USER                              x       y       z     vdW  Elec       q    Type
DOCKED: USER                           _______ _______ _______ _____ _____    ______ ____
DOCKED: ROOT
DOCKED: ATOM      1  C   UNL     1       7.927  26.267   4.645 -0.19 -0.05    +0.188 C 
DOCKED: ENDROOT
DOCKED: BRANCH   1   2
DOCKED: ATOM      2  C   UNL     1       7.492  27.428   5.564 -0.20 -0.12    +0.277 C 
DOCKED: ATOM      3  C   UNL     1       6.934  27.009   6.878 -0.28 -0.06    +0.186 C 
DOCKED: ATOM      4  C   UNL     1       7.666  27.467   7.890 -0.33 -0.09    +0.244 C 
DOCKED: ATOM      5  C   UNL     1       8.777  28.235   7.290 -0.23 -0.13    +0.377 C 
DOCKED: ATOM      6  O   UNL     1       8.640  28.212   5.930 -0.71 +0.14    -0.445 OA
DOCKED: ATOM      7  O   UNL     1       9.661  28.815   7.891 -1.05 +0.04    -0.242 OA
DOCKED: BRANCH   3   8
DOCKED: ATOM      8  O   UNL     1       5.777  26.282   6.950 -0.36 +0.07    -0.505 OA
DOCKED: ATOM      9  H   UNL     1       5.883  25.449   6.461 -0.45 -0.11    +0.293 HD
DOCKED: ENDBRANCH   3   8
DOCKED: BRANCH   4  10
DOCKED: ATOM     10  O   UNL     1       7.446  27.339   9.230 -0.14 +0.14    -0.499 OA
DOCKED: ATOM     11  H   UNL     1       7.915  28.050   9.695 +0.19 -0.12    +0.294 HD
DOCKED: ENDBRANCH   4  10
DOCKED: ENDBRANCH   1   2
DOCKED: BRANCH   1  12
DOCKED: ATOM     12  O   UNL     1       6.941  25.227   4.597 -0.07 +0.09    -0.386 OA
DOCKED: ATOM     13  H   UNL     1       6.777  24.919   5.508 -0.43 -0.13    +0.211 HD
DOCKED: ENDBRANCH   1  12
DOCKED: BRANCH   1  14
DOCKED: ATOM     14  C   UNL     1       8.200  26.767   3.215 -0.25 -0.03    +0.192 C 
DOCKED: BRANCH  14  15
DOCKED: ATOM     15  O   UNL     1       9.324  27.645   3.167 -0.23 +0.24    -0.394 OA
DOCKED: ATOM     16  H   UNL     1       9.688  27.722   4.068 -0.33 -0.15    +0.210 HD
DOCKED: ENDBRANCH  14  15
DOCKED: ENDBRANCH   1  14
DOCKED: TORSDOF 6
DOCKED: TER
DOCKED: ENDMDL
________________________________________________________________________________


	BEGINNING GENETIC ALGORITHM DOCKING 5 of 10
Run: 5 Seed: 601015025 1746244569 [ Run 5 of 10 GA/GALS ]
Beginning LAMARCKIAN GENETIC ALGORITHM (LGA), with a maximum of 2500000 energy evaluations.

Final-Value: -7.928


	FINAL GENETIC ALGORITHM DOCKED STATE
	_______________________________________________


Detailed state:  trans 17.874 17.640 4.601 quatxyzw -0.126743 0.607039 -0.781058 -0.073405 center 2.770 0.778 -0.376 ntor 6 -83.2749 90.5826 -0.4258 66.1901 64.5187 -65.5018
State:	 17.874  17.640   4.601  -0.127  0.609 -0.783 -171.581    -83.27   90.58   -0.43   66.19   64.52  -65.50

DOCKED: MODEL        5
DOCKED: USER    Run = 5
DOCKED: USER    DPF = ascorbic_acid.dpf
DOCKED: USER  
DOCKED: USER    Estimated Free Energy of Binding    =   -3.59 kcal/mol  [=(1)+(2)+(3)-(4)]
DOCKED: USER    Estimated Inhibition Constant, Ki   =    2.34 mM (millimolar)  [Temperature = 298.15 K]
DOCKED: USER    
DOCKED: USER    (1) Final Intermolecular Energy     =   -5.38 kcal/mol
DOCKED: USER        vdW + Hbond + desolv Energy     =   -4.48 kcal/mol
DOCKED: USER        Electrostatic Energy            =   -0.90 kcal/mol
DOCKED: USER    (2) Final Total Internal Energy     =   -2.55 kcal/mol
DOCKED: USER    (3) Torsional Free Energy           =   +1.79 kcal/mol
DOCKED: USER    (4) Unbound System's Energy  [=(2)] =   -2.55 kcal/mol
DOCKED: USER    
DOCKED: USER    
DOCKED: USER    NEWDPF move ascorbic_acid.pdbqt
DOCKED: USER    NEWDPF about 2.770437 0.777937 -0.375688
DOCKED: USER    NEWDPF tran0 17.874436 17.639927 4.601051
DOCKED: USER    NEWDPF quaternion0 -0.126743 0.607039 -0.781058 -0.073405
DOCKED: USER    NEWDPF axisangle0 -0.127086 0.608681 -0.783171 -171.580878
DOCKED: USER    NEWDPF quat0 -0.127086 0.608681 -0.783171 -171.580878
DOCKED: USER    NEWDPF dihe0 -83.27 90.58 -0.43 66.19 64.52 -65.50 
DOCKED: USER  keepresnum = 1 
DOCKED: USER  
DOCKED: REMARK SMILES O=C1O[C@@H]([C@@H](O)CO)C(O)=C1O
DOCKED: REMARK SMILES IDX 5 1 4 2 9 3 11 4 2 5 3 6 1 7 10 8 12 10 6 12 7 14 8 15
DOCKED: REMARK H PARENT 10 9 12 11 6 13 8 16
DOCKED: USER                              x       y       z     vdW  Elec       q    Type
DOCKED: USER                           _______ _______ _______ _____ _____    ______ ____
DOCKED: ROOT
DOCKED: ATOM      1  C   UNL     1      17.749  17.657   3.111 -0.45 -0.05    +0.188 C 
DOCKED: ENDROOT
DOCKED: BRANCH   1   2
DOCKED: ATOM      2  C   UNL     1      17.739  16.877   4.443 -0.29 -0.06    +0.277 C 
DOCKED: ATOM      3  C   UNL     1      19.064  16.354   4.870 -0.31 -0.07    +0.186 C 
DOCKED: ATOM      4  C   UNL     1      19.443  16.873   6.035 -0.18 -0.09    +0.244 C 
DOCKED: ATOM      5  C   UNL     1      18.365  17.791   6.457 -0.12 -0.12    +0.377 C 
DOCKED: ATOM      6  O   UNL     1      17.372  17.759   5.518 -0.11 +0.13    -0.445 OA
DOCKED: ATOM      7  O   UNL     1      18.339  18.453   7.476 -0.19 +0.05    -0.242 OA
DOCKED: BRANCH   3   8
DOCKED: ATOM      8  O   UNL     1      19.724  15.418   4.122 -0.09 +0.26    -0.505 OA
DOCKED: ATOM      9  H   UNL     1      20.064  15.829   3.309 -0.33 -0.50    +0.293 HD
DOCKED: ENDBRANCH   3   8
DOCKED: BRANCH   4  10
DOCKED: ATOM     10  O   UNL     1      20.561  16.599   6.769 -0.05 +0.14    -0.499 OA
DOCKED: ATOM     11  H   UNL     1      21.321  17.043   6.361 -0.47 -0.35    +0.294 HD
DOCKED: ENDBRANCH   4  10
DOCKED: ENDBRANCH   1   2
DOCKED: BRANCH   1  12
DOCKED: ATOM     12  O   UNL     1      19.068  17.746   2.556 -0.48 +0.22    -0.386 OA
DOCKED: ATOM     13  H   UNL     1      19.354  16.849   2.303 -0.34 -0.36    +0.211 HD
DOCKED: ENDBRANCH   1  12
DOCKED: BRANCH   1  14
DOCKED: ATOM     14  C   UNL     1      16.812  17.002   2.080 -0.38 -0.03    +0.192 C 
DOCKED: BRANCH  14  15
DOCKED: ATOM     15  O   UNL     1      17.539  16.433   0.992 -0.34 +0.11    -0.394 OA
DOCKED: ATOM     16  H   UNL     1      18.379  16.081   1.339 -0.34 -0.17    +0.210 HD
DOCKED: ENDBRANCH  14  15
DOCKED: ENDBRANCH   1  14
DOCKED: TORSDOF 6
DOCKED: TER
DOCKED: ENDMDL
________________________________________________________________________________


	BEGINNING GENETIC ALGORITHM DOCKING 6 of 10
Run: 6 Seed: 834713185 243558889 [ Run 6 of 10 GA/GALS ]
Beginning LAMARCKIAN GENETIC ALGORITHM (LGA), with a maximum of 2500000 energy evaluations.

Final-Value: -7.322


	FINAL GENETIC ALGORITHM DOCKED STATE
	_______________________________________________


Detailed state:  trans 12.615 24.152 4.127 quatxyzw -0.449439 -0.110428 0.456425 0.759925 center 2.770 0.778 -0.376 ntor 6 -151.4698 20.4152 77.1534 -16.0165 80.1828 159.1348
State:	 12.615  24.152   4.127  -0.691 -0.170  0.702 81.085   -151.47   20.42   77.15  -16.02   80.18  159.13

DOCKED: MODEL        6
DOCKED: USER    Run = 6
DOCKED: USER    DPF = ascorbic_acid.dpf
DOCKED: USER  
DOCKED: USER    Estimated Free Energy of Binding    =   -3.53 kcal/mol  [=(1)+(2)+(3)-(4)]
DOCKED: USER    Estimated Inhibition Constant, Ki   =    2.58 mM (millimolar)  [Temperature = 298.15 K]
DOCKED: USER    
DOCKED: USER    (1) Final Intermolecular Energy     =   -5.32 kcal/mol
DOCKED: USER        vdW + Hbond + desolv Energy     =   -4.25 kcal/mol
DOCKED: USER        Electrostatic Energy            =   -1.07 kcal/mol
DOCKED: USER    (2) Final Total Internal Energy     =   -2.00 kcal/mol
DOCKED: USER    (3) Torsional Free Energy           =   +1.79 kcal/mol
DOCKED: USER    (4) Unbound System's Energy  [=(2)] =   -2.00 kcal/mol
DOCKED: USER    
DOCKED: USER    
DOCKED: USER    NEWDPF move ascorbic_acid.pdbqt
DOCKED: USER    NEWDPF about 2.770437 0.777937 -0.375688
DOCKED: USER    NEWDPF tran0 12.615215 24.152438 4.126582
DOCKED: USER    NEWDPF quaternion0 -0.449439 -0.110428 0.456425 0.759925
DOCKED: USER    NEWDPF axisangle0 -0.691434 -0.169886 0.702181 81.084814
DOCKED: USER    NEWDPF quat0 -0.691434 -0.169886 0.702181 81.084814
DOCKED: USER    NEWDPF dihe0 -151.47 20.42 77.15 -16.02 80.18 159.13 
DOCKED: USER  keepresnum = 1 
DOCKED: USER  
DOCKED: REMARK SMILES O=C1O[C@@H]([C@@H](O)CO)C(O)=C1O
DOCKED: REMARK SMILES IDX 5 1 4 2 9 3 11 4 2 5 3 6 1 7 10 8 12 10 6 12 7 14 8 15
DOCKED: REMARK H PARENT 10 9 12 11 6 13 8 16
DOCKED: USER                              x       y       z     vdW  Elec       q    Type
DOCKED: USER                           _______ _______ _______ _____ _____    ______ ____
DOCKED: ROOT
DOCKED: ATOM      1  C   UNL     1      13.828  24.749   4.766 -0.37 -0.30    +0.188 C 
DOCKED: ENDROOT
DOCKED: BRANCH   1   2
DOCKED: ATOM      2  C   UNL     1      12.917  23.530   4.509 -0.19 -0.23    +0.277 C 
DOCKED: ATOM      3  C   UNL     1      13.637  22.273   4.172 -0.27 -0.13    +0.186 C 
DOCKED: ATOM      4  C   UNL     1      13.404  21.319   5.070 -0.21 -0.07    +0.244 C 
DOCKED: ATOM      5  C   UNL     1      12.496  21.904   6.077 -0.21 -0.05    +0.377 C 
DOCKED: ATOM      6  O   UNL     1      12.211  23.190   5.715 -0.05 +0.18    -0.445 OA
DOCKED: ATOM      7  O   UNL     1      12.048  21.341   7.058 -1.17 -0.07    -0.242 OA
DOCKED: BRANCH   3   8
DOCKED: ATOM      8  O   UNL     1      14.386  22.177   3.031 -0.12 +0.52    -0.505 OA
DOCKED: ATOM      9  H   UNL     1      14.398  23.035   2.574 -0.24 -0.64    +0.293 HD
DOCKED: ENDBRANCH   3   8
DOCKED: BRANCH   4  10
DOCKED: ATOM     10  O   UNL     1      13.839  20.026   5.074 -0.05 +0.06    -0.499 OA
DOCKED: ATOM     11  H   UNL     1      14.463  19.901   4.341 +0.18 -0.06    +0.294 HD
DOCKED: ENDBRANCH   4  10
DOCKED: ENDBRANCH   1   2
DOCKED: BRANCH   1  12
DOCKED: ATOM     12  O   UNL     1      13.402  25.501   5.910 -0.23 +0.55    -0.386 OA
DOCKED: ATOM     13  H   UNL     1      14.194  25.833   6.371 -0.40 -0.54    +0.211 HD
DOCKED: ENDBRANCH   1  12
DOCKED: BRANCH   1  14
DOCKED: ATOM     14  C   UNL     1      15.291  24.314   4.967 -0.37 -0.37    +0.192 C 
DOCKED: BRANCH  14  15
DOCKED: ATOM     15  O   UNL     1      15.620  24.193   6.350 -0.14 +0.63    -0.394 OA
DOCKED: ATOM     16  H   UNL     1      15.300  24.990   6.810 -0.41 -0.55    +0.210 HD
DOCKED: ENDBRANCH  14  15
DOCKED: ENDBRANCH   1  14
DOCKED: TORSDOF 6
DOCKED: TER
DOCKED: ENDMDL
________________________________________________________________________________


	BEGINNING GENETIC ALGORITHM DOCKING 7 of 10
Run: 7 Seed: 1447242813 1935438482 [ Run 7 of 10 GA/GALS ]
Beginning LAMARCKIAN GENETIC ALGORITHM (LGA), with a maximum of 2500000 energy evaluations.

Final-Value: -7.448


	FINAL GENETIC ALGORITHM DOCKED STATE
	_______________________________________________


Detailed state:  trans 18.826 18.122 5.246 quatxyzw -0.379547 -0.391134 0.781352 -0.304052 center 2.770 0.778 -0.376 ntor 6 22.3219 23.0331 79.3149 -18.0860 64.3775 93.4219
State:	 18.826  18.122   5.246  -0.398 -0.411  0.820 -144.598     22.32   23.03   79.31  -18.09   64.38   93.42

DOCKED: MODEL        7
DOCKED: USER    Run = 7
DOCKED: USER    DPF = ascorbic_acid.dpf
DOCKED: USER  
DOCKED: USER    Estimated Free Energy of Binding    =   -3.70 kcal/mol  [=(1)+(2)+(3)-(4)]
DOCKED: USER    Estimated Inhibition Constant, Ki   =    1.95 mM (millimolar)  [Temperature = 298.15 K]
DOCKED: USER    
DOCKED: USER    (1) Final Intermolecular Energy     =   -5.49 kcal/mol
DOCKED: USER        vdW + Hbond + desolv Energy     =   -5.02 kcal/mol
DOCKED: USER        Electrostatic Energy            =   -0.47 kcal/mol
DOCKED: USER    (2) Final Total Internal Energy     =   -1.96 kcal/mol
DOCKED: USER    (3) Torsional Free Energy           =   +1.79 kcal/mol
DOCKED: USER    (4) Unbound System's Energy  [=(2)] =   -1.96 kcal/mol
DOCKED: USER    
DOCKED: USER    
DOCKED: USER    NEWDPF move ascorbic_acid.pdbqt
DOCKED: USER    NEWDPF about 2.770437 0.777937 -0.375688
DOCKED: USER    NEWDPF tran0 18.826289 18.122395 5.245838
DOCKED: USER    NEWDPF quaternion0 -0.379547 -0.391134 0.781352 -0.304052
DOCKED: USER    NEWDPF axisangle0 -0.398409 -0.410572 0.820183 -144.597667
DOCKED: USER    NEWDPF quat0 -0.398409 -0.410572 0.820183 -144.597667
DOCKED: USER    NEWDPF dihe0 22.32 23.03 79.31 -18.09 64.38 93.42 
DOCKED: USER  keepresnum = 1 
DOCKED: USER  
DOCKED: REMARK SMILES O=C1O[C@@H]([C@@H](O)CO)C(O)=C1O
DOCKED: REMARK SMILES IDX 5 1 4 2 9 3 11 4 2 5 3 6 1 7 10 8 12 10 6 12 7 14 8 15
DOCKED: REMARK H PARENT 10 9 12 11 6 13 8 16
DOCKED: USER                              x       y       z     vdW  Elec       q    Type
DOCKED: USER                           _______ _______ _______ _____ _____    ______ ____
DOCKED: ROOT
DOCKED: ATOM      1  C   UNL     1      18.923  17.504   3.888 -0.38 -0.10    +0.188 C 
DOCKED: ENDROOT
DOCKED: BRANCH   1   2
DOCKED: ATOM      2  C   UNL     1      18.070  17.948   5.095 -0.25 -0.09    +0.277 C 
DOCKED: ATOM      3  C   UNL     1      17.964  19.421   5.277 -0.31 -0.06    +0.186 C 
DOCKED: ATOM      4  C   UNL     1      16.704  19.837   5.180 -0.23 -0.08    +0.244 C 
DOCKED: ATOM      5  C   UNL     1      15.884  18.636   4.924 -0.18 -0.08    +0.377 C 
DOCKED: ATOM      6  O   UNL     1      16.705  17.543   4.899 -0.15 +0.09    -0.445 OA
DOCKED: ATOM      7  O   UNL     1      14.677  18.603   4.780 -0.32 +0.03    -0.242 OA
DOCKED: BRANCH   3   8
DOCKED: ATOM      8  O   UNL     1      19.071  20.176   5.554 -0.70 +0.27    -0.505 OA
DOCKED: ATOM      9  H   UNL     1      18.824  21.114   5.602 -0.40 -0.25    +0.293 HD
DOCKED: ENDBRANCH   3   8
DOCKED: BRANCH   4  10
DOCKED: ATOM     10  O   UNL     1      16.206  21.097   5.341 -0.07 +0.25    -0.499 OA
DOCKED: ATOM     11  H   UNL     1      16.946  21.722   5.405 -0.23 -0.25    +0.294 HD
DOCKED: ENDBRANCH   4  10
DOCKED: ENDBRANCH   1   2
DOCKED: BRANCH   1  12
DOCKED: ATOM     12  O   UNL     1      19.411  16.164   4.045 -0.20 +0.25    -0.386 OA
DOCKED: ATOM     13  H   UNL     1      19.441  15.745   3.165 -0.44 -0.29    +0.211 HD
DOCKED: ENDBRANCH   1  12
DOCKED: BRANCH   1  14
DOCKED: ATOM     14  C   UNL     1      18.119  17.596   2.579 -0.44 -0.07    +0.192 C 
DOCKED: BRANCH  14  15
DOCKED: ATOM     15  O   UNL     1      17.858  16.306   2.027 -0.24 +0.18    -0.394 OA
DOCKED: ATOM     16  H   UNL     1      18.697  15.811   2.002 -0.46 -0.26    +0.210 HD
DOCKED: ENDBRANCH  14  15
DOCKED: ENDBRANCH   1  14
DOCKED: TORSDOF 6
DOCKED: TER
DOCKED: ENDMDL
________________________________________________________________________________


	BEGINNING GENETIC ALGORITHM DOCKING 8 of 10
Run: 8 Seed: 1357797094 156821598 [ Run 8 of 10 GA/GALS ]
Beginning LAMARCKIAN GENETIC ALGORITHM (LGA), with a maximum of 2500000 energy evaluations.

Final-Value: -8.202


	FINAL GENETIC ALGORITHM DOCKED STATE
	_______________________________________________


Detailed state:  trans 8.452 26.795 7.086 quatxyzw -0.216825 0.727034 0.398469 0.515393 center 2.770 0.778 -0.376 ntor 6 -54.2505 174.3579 16.4057 37.1310 94.1420 -117.3514
State:	  8.452  26.795   7.086  -0.253  0.848  0.465 117.952    -54.25  174.36   16.41   37.13   94.14 -117.35

DOCKED: MODEL        8
DOCKED: USER    Run = 8
DOCKED: USER    DPF = ascorbic_acid.dpf
DOCKED: USER  
DOCKED: USER    Estimated Free Energy of Binding    =   -3.33 kcal/mol  [=(1)+(2)+(3)-(4)]
DOCKED: USER    Estimated Inhibition Constant, Ki   =    3.61 mM (millimolar)  [Temperature = 298.15 K]
DOCKED: USER    
DOCKED: USER    (1) Final Intermolecular Energy     =   -5.12 kcal/mol
DOCKED: USER        vdW + Hbond + desolv Energy     =   -4.50 kcal/mol
DOCKED: USER        Electrostatic Energy            =   -0.62 kcal/mol
DOCKED: USER    (2) Final Total Internal Energy     =   -3.08 kcal/mol
DOCKED: USER    (3) Torsional Free Energy           =   +1.79 kcal/mol
DOCKED: USER    (4) Unbound System's Energy  [=(2)] =   -3.08 kcal/mol
DOCKED: USER    
DOCKED: USER    
DOCKED: USER    NEWDPF move ascorbic_acid.pdbqt
DOCKED: USER    NEWDPF about 2.770437 0.777937 -0.375688
DOCKED: USER    NEWDPF tran0 8.452091 26.794747 7.085767
DOCKED: USER    NEWDPF quaternion0 -0.216825 0.727034 0.398469 0.515393
DOCKED: USER    NEWDPF axisangle0 -0.253018 0.848394 0.464983 117.952492
DOCKED: USER    NEWDPF quat0 -0.253018 0.848394 0.464983 117.952492
DOCKED: USER    NEWDPF dihe0 -54.25 174.36 16.41 37.13 94.14 -117.35 
DOCKED: USER  keepresnum = 1 
DOCKED: USER  
DOCKED: REMARK SMILES O=C1O[C@@H]([C@@H](O)CO)C(O)=C1O
DOCKED: REMARK SMILES IDX 5 1 4 2 9 3 11 4 2 5 3 6 1 7 10 8 12 10 6 12 7 14 8 15
DOCKED: REMARK H PARENT 10 9 12 11 6 13 8 16
DOCKED: USER                              x       y       z     vdW  Elec       q    Type
DOCKED: USER                           _______ _______ _______ _____ _____    ______ ____
DOCKED: ROOT
DOCKED: ATOM      1  C   UNL     1       8.973  27.535   8.276 -0.41 -0.06    +0.188 C 
DOCKED: ENDROOT
DOCKED: BRANCH   1   2
DOCKED: ATOM      2  C   UNL     1       7.782  26.996   7.454 -0.25 -0.09    +0.277 C 
DOCKED: ATOM      3  C   UNL     1       6.603  27.901   7.394 -0.32 -0.09    +0.186 C 
DOCKED: ATOM      4  C   UNL     1       6.335  28.274   6.146 -0.19 -0.14    +0.244 C 
DOCKED: ATOM      5  C   UNL     1       7.345  27.622   5.287 -0.14 -0.18    +0.377 C 
DOCKED: ATOM      6  O   UNL     1       8.166  26.865   6.075 -0.10 +0.16    -0.445 OA
DOCKED: ATOM      7  O   UNL     1       7.431  27.714   4.077 -0.25 +0.11    -0.242 OA
DOCKED: BRANCH   3   8
DOCKED: ATOM      8  O   UNL     1       5.906  28.222   8.527 -0.06 +0.28    -0.505 OA
DOCKED: ATOM      9  H   UNL     1       6.168  29.106   8.834 -0.40 -0.44    +0.293 HD
DOCKED: ENDBRANCH   3   8
DOCKED: BRANCH   4  10
DOCKED: ATOM     10  O   UNL     1       5.310  29.049   5.687 -0.03 +0.35    -0.499 OA
DOCKED: ATOM     11  H   UNL     1       5.544  29.395   4.812 -0.46 -0.43    +0.294 HD
DOCKED: ENDBRANCH   4  10
DOCKED: ENDBRANCH   1   2
DOCKED: BRANCH   1  12
DOCKED: ATOM     12  O   UNL     1       9.367  28.846   7.846 -0.90 +0.08    -0.386 OA
DOCKED: ATOM     13  H   UNL     1       8.784  29.497   8.278 +0.05 -0.10    +0.211 HD
DOCKED: ENDBRANCH   1  12
DOCKED: BRANCH   1  14
DOCKED: ATOM     14  C   UNL     1       8.633  27.580   9.777 -0.33 -0.05    +0.192 C 
DOCKED: BRANCH  14  15
DOCKED: ATOM     15  O   UNL     1       7.902  28.757  10.118 -0.27 +0.24    -0.394 OA
DOCKED: ATOM     16  H   UNL     1       7.696  29.236   9.295 -0.42 -0.27    +0.210 HD
DOCKED: ENDBRANCH  14  15
DOCKED: ENDBRANCH   1  14
DOCKED: TORSDOF 6
DOCKED: TER
DOCKED: ENDMDL
________________________________________________________________________________


	BEGINNING GENETIC ALGORITHM DOCKING 9 of 10
Run: 9 Seed: 978934287 2086796585 [ Run 9 of 10 GA/GALS ]
Beginning LAMARCKIAN GENETIC ALGORITHM (LGA), with a maximum of 2500000 energy evaluations.

Final-Value: -7.956


	FINAL GENETIC ALGORITHM DOCKED STATE
	_______________________________________________


Detailed state:  trans 7.738 27.980 6.337 quatxyzw 0.013032 -0.454885 0.838921 0.298533 center 2.770 0.778 -0.376 ntor 6 41.4277 18.8118 103.6169 74.3257 25.4799 21.7326
State:	  7.738  27.980   6.337   0.014 -0.477  0.879 145.261     41.43   18.81  103.62   74.33   25.48   21.73

DOCKED: MODEL        9
DOCKED: USER    Run = 9
DOCKED: USER    DPF = ascorbic_acid.dpf
DOCKED: USER  
DOCKED: USER    Estimated Free Energy of Binding    =   -4.21 kcal/mol  [=(1)+(2)+(3)-(4)]
DOCKED: USER    Estimated Inhibition Constant, Ki   =  820.97 uM (micromolar)  [Temperature = 298.15 K]
DOCKED: USER    
DOCKED: USER    (1) Final Intermolecular Energy     =   -6.00 kcal/mol
DOCKED: USER        vdW + Hbond + desolv Energy     =   -5.13 kcal/mol
DOCKED: USER        Electrostatic Energy            =   -0.87 kcal/mol
DOCKED: USER    (2) Final Total Internal Energy     =   -1.96 kcal/mol
DOCKED: USER    (3) Torsional Free Energy           =   +1.79 kcal/mol
DOCKED: USER    (4) Unbound System's Energy  [=(2)] =   -1.96 kcal/mol
DOCKED: USER    
DOCKED: USER    
DOCKED: USER    NEWDPF move ascorbic_acid.pdbqt
DOCKED: USER    NEWDPF about 2.770437 0.777937 -0.375688
DOCKED: USER    NEWDPF tran0 7.737921 27.980270 6.337487
DOCKED: USER    NEWDPF quaternion0 0.013032 -0.454885 0.838921 0.298533
DOCKED: USER    NEWDPF axisangle0 0.013655 -0.476619 0.879004 145.260951
DOCKED: USER    NEWDPF quat0 0.013655 -0.476619 0.879004 145.260951
DOCKED: USER    NEWDPF dihe0 41.43 18.81 103.62 74.33 25.48 21.73 
DOCKED: USER  keepresnum = 1 
DOCKED: USER  
DOCKED: REMARK SMILES O=C1O[C@@H]([C@@H](O)CO)C(O)=C1O
DOCKED: REMARK SMILES IDX 5 1 4 2 9 3 11 4 2 5 3 6 1 7 10 8 12 10 6 12 7 14 8 15
DOCKED: REMARK H PARENT 10 9 12 11 6 13 8 16
DOCKED: USER                              x       y       z     vdW  Elec       q    Type
DOCKED: USER                           _______ _______ _______ _____ _____    ______ ____
DOCKED: ROOT
DOCKED: ATOM      1  C   UNL     1       8.364  27.716   5.006 -0.29 -0.09    +0.188 C 
DOCKED: ENDROOT
DOCKED: BRANCH   1   2
DOCKED: ATOM      2  C   UNL     1       7.834  27.196   6.360 -0.22 -0.10    +0.277 C 
DOCKED: ATOM      3  C   UNL     1       7.346  28.252   7.286 -0.36 -0.11    +0.186 C 
DOCKED: ATOM      4  C   UNL     1       6.054  28.099   7.566 -0.27 -0.12    +0.244 C 
DOCKED: ATOM      5  C   UNL     1       5.603  26.904   6.824 -0.16 -0.06    +0.377 C 
DOCKED: ATOM      6  O   UNL     1       6.667  26.384   6.143 -0.08 +0.14    -0.445 OA
DOCKED: ATOM      7  O   UNL     1       4.481  26.435   6.826 -0.80 -0.03    -0.242 OA
DOCKED: BRANCH   3   8
DOCKED: ATOM      8  O   UNL     1       8.198  29.201   7.781 -0.48 +0.36    -0.505 OA
DOCKED: ATOM      9  H   UNL     1       7.793  29.634   8.551 -0.29 -0.47    +0.293 HD
DOCKED: ENDBRANCH   3   8
DOCKED: BRANCH   4  10
DOCKED: ATOM     10  O   UNL     1       5.271  28.830   8.411 -0.05 +0.35    -0.499 OA
DOCKED: ATOM     11  H   UNL     1       5.788  29.575   8.754 -0.35 -0.62    +0.294 HD
DOCKED: ENDBRANCH   4  10
DOCKED: ENDBRANCH   1   2
DOCKED: BRANCH   1  12
DOCKED: ATOM     12  O   UNL     1       9.747  28.091   5.084 -0.52 +0.12    -0.386 OA
DOCKED: ATOM     13  H   UNL     1      10.069  28.259   4.179 -0.47 -0.17    +0.211 HD
DOCKED: ENDBRANCH   1  12
DOCKED: BRANCH   1  14
DOCKED: ATOM     14  C   UNL     1       8.192  26.657   3.901 -0.24 -0.05    +0.192 C 
DOCKED: BRANCH  14  15
DOCKED: ATOM     15  O   UNL     1       9.188  26.784   2.888 -0.16 +0.15    -0.394 OA
DOCKED: ATOM     16  H   UNL     1      10.046  26.942   3.323 -0.41 -0.17    +0.210 HD
DOCKED: ENDBRANCH  14  15
DOCKED: ENDBRANCH   1  14
DOCKED: TORSDOF 6
DOCKED: TER
DOCKED: ENDMDL
________________________________________________________________________________


	BEGINNING GENETIC ALGORITHM DOCKING 10 of 10
Run: 10 Seed: 111746573 1103980910 [ Run 10 of 10 GA/GALS ]
Beginning LAMARCKIAN GENETIC ALGORITHM (LGA), with a maximum of 2500000 energy evaluations.

Final-Value: -7.200


	FINAL GENETIC ALGORITHM DOCKED STATE
	_______________________________________________


Detailed state:  trans 8.009 27.303 4.686 quatxyzw 0.301076 0.266526 0.875054 0.269438 center 2.770 0.778 -0.376 ntor 6 -60.1576 -100.6280 -54.6971 27.5568 112.1814 138.4051
State:	  8.009  27.303   4.686   0.313  0.277  0.909 148.738    -60.16 -100.63  -54.70   27.56  112.18  138.41

DOCKED: MODEL       10
DOCKED: USER    Run = 10
DOCKED: USER    DPF = ascorbic_acid.dpf
DOCKED: USER  
DOCKED: USER    Estimated Free Energy of Binding    =   -3.04 kcal/mol  [=(1)+(2)+(3)-(4)]
DOCKED: USER    Estimated Inhibition Constant, Ki   =    5.94 mM (millimolar)  [Temperature = 298.15 K]
DOCKED: USER    
DOCKED: USER    (1) Final Intermolecular Energy     =   -4.83 kcal/mol
DOCKED: USER        vdW + Hbond + desolv Energy     =   -4.44 kcal/mol
DOCKED: USER        Electrostatic Energy            =   -0.38 kcal/mol
DOCKED: USER    (2) Final Total Internal Energy     =   -2.37 kcal/mol
DOCKED: USER    (3) Torsional Free Energy           =   +1.79 kcal/mol
DOCKED: USER    (4) Unbound System's Energy  [=(2)] =   -2.37 kcal/mol
DOCKED: USER    
DOCKED: USER    
DOCKED: USER    NEWDPF move ascorbic_acid.pdbqt
DOCKED: USER    NEWDPF about 2.770437 0.777937 -0.375688
DOCKED: USER    NEWDPF tran0 8.009443 27.302661 4.685896
DOCKED: USER    NEWDPF quaternion0 0.301076 0.266526 0.875054 0.269438
DOCKED: USER    NEWDPF axisangle0 0.312639 0.276762 0.908658 148.738367
DOCKED: USER    NEWDPF quat0 0.312639 0.276762 0.908658 148.738367
DOCKED: USER    NEWDPF dihe0 -60.16 -100.63 -54.70 27.56 112.18 138.41 
DOCKED: USER  keepresnum = 1 
DOCKED: USER  
DOCKED: REMARK SMILES O=C1O[C@@H]([C@@H](O)CO)C(O)=C1O
DOCKED: REMARK SMILES IDX 5 1 4 2 9 3 11 4 2 5 3 6 1 7 10 8 12 10 6 12 7 14 8 15
DOCKED: REMARK H PARENT 10 9 12 11 6 13 8 16
DOCKED: USER                              x       y       z     vdW  Elec       q    Type
DOCKED: USER                           _______ _______ _______ _____ _____    ______ ____
DOCKED: ROOT
DOCKED: ATOM      1  C   UNL     1       8.800  26.041   4.825 -0.20 -0.06    +0.188 C 
DOCKED: ENDROOT
DOCKED: BRANCH   1   2
DOCKED: ATOM      2  C   UNL     1       8.260  27.353   5.434 -0.23 -0.11    +0.277 C 
DOCKED: ATOM      3  C   UNL     1       7.278  27.171   6.537 -0.26 -0.07    +0.186 C 
DOCKED: ATOM      4  C   UNL     1       7.720  27.696   7.677 -0.33 -0.10    +0.244 C 
DOCKED: ATOM      5  C   UNL     1       9.051  28.268   7.388 -0.22 -0.11    +0.377 C 
DOCKED: ATOM      6  O   UNL     1       9.333  28.071   6.065 -0.69 +0.08    -0.445 OA
DOCKED: ATOM      7  O   UNL     1       9.777  28.842   8.177 -1.03 +0.05    -0.242 OA
DOCKED: BRANCH   3   8
DOCKED: ATOM      8  O   UNL     1       6.070  26.571   6.311 -0.10 +0.12    -0.505 OA
DOCKED: ATOM      9  H   UNL     1       6.128  25.625   6.528 -0.40 -0.12    +0.293 HD
DOCKED: ENDBRANCH   3   8
DOCKED: BRANCH   4  10
DOCKED: ATOM     10  O   UNL     1       7.087  27.774   8.883 -0.16 +0.22    -0.499 OA
DOCKED: ATOM     11  H   UNL     1       6.925  28.707   9.093 -0.25 -0.30    +0.294 HD
DOCKED: ENDBRANCH   4  10
DOCKED: ENDBRANCH   1   2
DOCKED: BRANCH   1  12
DOCKED: ATOM     12  O   UNL     1      10.064  26.235   4.176 -0.11 +0.22    -0.386 OA
DOCKED: ATOM     13  H   UNL     1      10.402  27.116   4.423 -0.42 -0.17    +0.211 HD
DOCKED: ENDBRANCH   1  12
DOCKED: BRANCH   1  14
DOCKED: ATOM     14  C   UNL     1       8.950  24.952   5.902 -0.07 -0.07    +0.192 C 
DOCKED: BRANCH  14  15
DOCKED: ATOM     15  O   UNL     1       9.929  25.305   6.878 -0.11 +0.12    -0.394 OA
DOCKED: ATOM     16  H   UNL     1      10.336  26.148   6.608 +0.13 -0.08    +0.210 HD
DOCKED: ENDBRANCH  14  15
DOCKED: ENDBRANCH   1  14
DOCKED: TORSDOF 6
DOCKED: TER
DOCKED: ENDMDL
________________________________________________________________________________

DPF> analysis


		CLUSTER ANALYSIS OF CONFORMATIONS
		_________________________________

Number of conformations = 10

RMSD cluster analysis will be performed using the ligand atoms only (16 / 16 total atoms).

Outputting structurally similar clusters, ranked in order of increasing energy.


________________________________________________________________________________

Number of distinct conformational clusters found = 4,  out of 10 runs,
Using an rmsd-tolerance of 2.0 A


	CLUSTERING HISTOGRAM
	____________________

________________________________________________________________________________
     |           |     |           |     |                                    
Clus | Lowest    | Run | Mean      | Num | Histogram                          
-ter | Binding   |     | Binding   | in  |                                    
Rank | Energy    |     | Energy    | Clus|    5    10   15   20   25   30   35
_____|___________|_____|___________|_____|____:____|____:____|____:____|____:___
   1 |     -4.21 |   9 |     -3.77 |   2 |##
   2 |     -3.70 |   7 |     -3.64 |   2 |##
   3 |     -3.62 |   1 |     -3.30 |   4 |####
   4 |     -3.53 |   6 |     -3.08 |   2 |##
_____|___________|_____|___________|_____|______________________________________


Number of multi-member conformational clusters found = 4, out of 10 runs.

	RMSD TABLE
	__________

_____________________________________________________________________
     |      |      |           |         |                 |
Rank | Sub- | Run  | Binding   | Cluster | Reference       | Grep
     | Rank |      | Energy    | RMSD    | RMSD            | Pattern
_____|______|______|___________|_________|_________________|___________
   1      1      9       -4.21      0.00     25.53           RANKING
   1      2      8       -3.33      1.91     26.28           RANKING
   2      1      7       -3.70      0.00     21.38           RANKING
   2      2      5       -3.59      1.83     21.10           RANKING
   3      1      1       -3.62      0.00     24.36           RANKING
   3      2      4       -3.53      1.79     24.85           RANKING
   3      3     10       -3.04      1.55     25.03           RANKING
   3      4      2       -3.01      1.75     25.24           RANKING
   4      1      6       -3.53      0.00     22.87           RANKING
   4      2      3       -2.63      1.79     22.59           RANKING
_______________________________________________________________________



	INFORMATION ENTROPY ANALYSIS FOR THIS CLUSTERING
	________________________________________________


Information entropy for this clustering = 0.58  (rmstol = 2.00 Angstrom)

_______________________________________________________________________


	STATISTICAL MECHANICAL ANALYSIS
	_______________________________


Partition function, Q =    10.06            at Temperature, T = 298.15 K
Free energy,        A ~ -1367.66 kcal/mol   at Temperature, T = 298.15 K
Internal energy,    U =    -3.42 kcal/mol   at Temperature, T = 298.15 K
Entropy,            S =     4.58 kcal/mol/K at Temperature, T = 298.15 K

_______________________________________________________________________


	LOWEST ENERGY DOCKED CONFORMATION from EACH CLUSTER
	___________________________________________________



Keeping original residue number (specified in the input PDBQ file) for outputting.

MODEL        9
USER    Run = 9
USER    Cluster Rank = 1
USER    Number of conformations in this cluster = 2
USER  
USER    RMSD from reference structure       = 25.532 A
USER  
USER    Estimated Free Energy of Binding    =   -4.21 kcal/mol  [=(1)+(2)+(3)-(4)]
USER    Estimated Inhibition Constant, Ki   =  820.97 uM (micromolar)  [Temperature = 298.15 K]
USER    
USER    (1) Final Intermolecular Energy     =   -6.00 kcal/mol
USER        vdW + Hbond + desolv Energy     =   -5.13 kcal/mol
USER        Electrostatic Energy            =   -0.87 kcal/mol
USER    (2) Final Total Internal Energy     =   -1.96 kcal/mol
USER    (3) Torsional Free Energy           =   +1.79 kcal/mol
USER    (4) Unbound System's Energy  [=(2)] =   -1.96 kcal/mol
USER    
USER    
USER  
USER    DPF = ascorbic_acid.dpf
USER    NEWDPF move	ascorbic_acid.pdbqt
USER    NEWDPF about	2.770437 0.777937 -0.375688
USER    NEWDPF tran0	7.737921 27.980270 6.337487
USER    NEWDPF axisangle0	0.013655 -0.476619 0.879004 145.260951
USER    NEWDPF quaternion0	0.013032 -0.454885 0.838921 0.298533
USER    NEWDPF dihe0	41.43 18.81 103.62 74.33 25.48 21.73 
USER  
USER                              x       y       z    vdW   Elec        q     RMS 
ATOM      1  C   UNL     1       8.364  27.716   5.006 -0.29 -0.09    +0.188    25.532
ATOM      2  C   UNL     1       7.834  27.196   6.360 -0.22 -0.10    +0.277    25.532
ATOM      3  C   UNL     1       7.346  28.252   7.286 -0.36 -0.11    +0.186    25.532
ATOM      4  C   UNL     1       6.054  28.099   7.566 -0.27 -0.12    +0.244    25.532
ATOM      5  C   UNL     1       5.603  26.904   6.824 -0.16 -0.06    +0.377    25.532
ATOM      6  O   UNL     1       6.667  26.384   6.143 -0.08 +0.14    -0.445    25.532
ATOM      7  O   UNL     1       4.481  26.435   6.826 -0.80 -0.03    -0.242    25.532
ATOM      8  O   UNL     1       8.198  29.201   7.781 -0.48 +0.36    -0.505    25.532
ATOM      9  H   UNL     1       7.793  29.634   8.551 -0.29 -0.47    +0.293    25.532
ATOM     10  O   UNL     1       5.271  28.830   8.411 -0.05 +0.35    -0.499    25.532
ATOM     11  H   UNL     1       5.788  29.575   8.754 -0.35 -0.62    +0.294    25.532
ATOM     12  O   UNL     1       9.747  28.091   5.084 -0.52 +0.12    -0.386    25.532
ATOM     13  H   UNL     1      10.069  28.259   4.179 -0.47 -0.17    +0.211    25.532
ATOM     14  C   UNL     1       8.192  26.657   3.901 -0.24 -0.05    +0.192    25.532
ATOM     15  O   UNL     1       9.188  26.784   2.888 -0.16 +0.15    -0.394    25.532
ATOM     16  H   UNL     1      10.046  26.942   3.323 -0.41 -0.17    +0.210    25.532
TER
ENDMDL
MODEL        7
USER    Run = 7
USER    Cluster Rank = 2
USER    Number of conformations in this cluster = 2
USER  
USER    RMSD from reference structure       = 21.382 A
USER  
USER    Estimated Free Energy of Binding    =   -3.70 kcal/mol  [=(1)+(2)+(3)-(4)]
USER    Estimated Inhibition Constant, Ki   =    1.95 mM (millimolar)  [Temperature = 298.15 K]
USER    
USER    (1) Final Intermolecular Energy     =   -5.49 kcal/mol
USER        vdW + Hbond + desolv Energy     =   -5.02 kcal/mol
USER        Electrostatic Energy            =   -0.47 kcal/mol
USER    (2) Final Total Internal Energy     =   -1.96 kcal/mol
USER    (3) Torsional Free Energy           =   +1.79 kcal/mol
USER    (4) Unbound System's Energy  [=(2)] =   -1.96 kcal/mol
USER    
USER    
USER  
USER    DPF = ascorbic_acid.dpf
USER    NEWDPF move	ascorbic_acid.pdbqt
USER    NEWDPF about	2.770437 0.777937 -0.375688
USER    NEWDPF tran0	18.826289 18.122395 5.245838
USER    NEWDPF axisangle0	-0.398409 -0.410572 0.820183 -144.597667
USER    NEWDPF quaternion0	-0.379547 -0.391134 0.781352 -0.304052
USER    NEWDPF dihe0	22.32 23.03 79.31 -18.09 64.38 93.42 
USER  
USER                              x       y       z    vdW   Elec        q     RMS 
ATOM      1  C   UNL     1      18.923  17.504   3.888 -0.38 -0.10    +0.188    21.382
ATOM      2  C   UNL     1      18.070  17.948   5.095 -0.25 -0.09    +0.277    21.382
ATOM      3  C   UNL     1      17.964  19.421   5.277 -0.31 -0.06    +0.186    21.382
ATOM      4  C   UNL     1      16.704  19.837   5.180 -0.23 -0.08    +0.244    21.382
ATOM      5  C   UNL     1      15.884  18.636   4.924 -0.18 -0.08    +0.377    21.382
ATOM      6  O   UNL     1      16.705  17.543   4.899 -0.15 +0.09    -0.445    21.382
ATOM      7  O   UNL     1      14.677  18.603   4.780 -0.32 +0.03    -0.242    21.382
ATOM      8  O   UNL     1      19.071  20.176   5.554 -0.70 +0.27    -0.505    21.382
ATOM      9  H   UNL     1      18.824  21.114   5.602 -0.40 -0.25    +0.293    21.382
ATOM     10  O   UNL     1      16.206  21.097   5.341 -0.07 +0.25    -0.499    21.382
ATOM     11  H   UNL     1      16.946  21.722   5.405 -0.23 -0.25    +0.294    21.382
ATOM     12  O   UNL     1      19.411  16.164   4.045 -0.20 +0.25    -0.386    21.382
ATOM     13  H   UNL     1      19.441  15.745   3.165 -0.44 -0.29    +0.211    21.382
ATOM     14  C   UNL     1      18.119  17.596   2.579 -0.44 -0.07    +0.192    21.382
ATOM     15  O   UNL     1      17.858  16.306   2.027 -0.24 +0.18    -0.394    21.382
ATOM     16  H   UNL     1      18.697  15.811   2.002 -0.46 -0.26    +0.210    21.382
TER
ENDMDL
MODEL        1
USER    Run = 1
USER    Cluster Rank = 3
USER    Number of conformations in this cluster = 4
USER  
USER    RMSD from reference structure       = 24.363 A
USER  
USER    Estimated Free Energy of Binding    =   -3.62 kcal/mol  [=(1)+(2)+(3)-(4)]
USER    Estimated Inhibition Constant, Ki   =    2.23 mM (millimolar)  [Temperature = 298.15 K]
USER    
USER    (1) Final Intermolecular Energy     =   -5.41 kcal/mol
USER        vdW + Hbond + desolv Energy     =   -4.95 kcal/mol
USER        Electrostatic Energy            =   -0.46 kcal/mol
USER    (2) Final Total Internal Energy     =   -3.09 kcal/mol
USER    (3) Torsional Free Energy           =   +1.79 kcal/mol
USER    (4) Unbound System's Energy  [=(2)] =   -3.09 kcal/mol
USER    
USER    
USER  
USER    DPF = ascorbic_acid.dpf
USER    NEWDPF move	ascorbic_acid.pdbqt
USER    NEWDPF about	2.770437 0.777937 -0.375688
USER    NEWDPF tran0	9.626768 26.949391 5.851600
USER    NEWDPF axisangle0	-0.672937 0.009485 0.739639 -154.770268
USER    NEWDPF quaternion0	-0.656692 0.009256 0.721784 -0.218396
USER    NEWDPF dihe0	-69.94 -141.57 35.34 20.79 100.03 -103.83 
USER  
USER                              x       y       z    vdW   Elec        q     RMS 
ATOM      1  C   UNL     1       9.531  25.513   5.447 -0.21 -0.07    +0.188    24.363
ATOM      2  C   UNL     1       8.901  26.919   5.541 -0.22 -0.10    +0.277    24.363
ATOM      3  C   UNL     1       7.554  26.959   6.171 -0.24 -0.07    +0.186    24.363
ATOM      4  C   UNL     1       7.553  27.699   7.277 -0.31 -0.10    +0.244    24.363
ATOM      5  C   UNL     1       8.931  28.203   7.447 -0.26 -0.12    +0.377    24.363
ATOM      6  O   UNL     1       9.693  27.749   6.407 -0.56 +0.10    -0.445    24.363
ATOM      7  O   UNL     1       9.332  28.921   8.342 -0.91 +0.07    -0.242    24.363
ATOM      8  O   UNL     1       6.489  26.325   5.593 -0.04 +0.14    -0.505    24.363
ATOM      9  H   UNL     1       6.474  25.393   5.866 -0.44 -0.15    +0.293    24.363
ATOM     10  O   UNL     1       6.505  28.014   8.093 -0.14 +0.26    -0.499    24.363
ATOM     11  H   UNL     1       6.709  28.838   8.561 -0.36 -0.34    +0.294    24.363
ATOM     12  O   UNL     1       9.278  24.736   6.626 -0.12 +0.13    -0.386    24.363
ATOM     13  H   UNL     1       8.559  24.107   6.429 -0.48 -0.11    +0.211    24.363
ATOM     14  C   UNL     1       9.002  24.750   4.219 -0.18 -0.05    +0.192    24.363
ATOM     15  O   UNL     1       7.683  24.250   4.436 -0.10 +0.11    -0.394    24.363
ATOM     16  H   UNL     1       7.468  24.358   5.380 -0.39 -0.14    +0.210    24.363
TER
ENDMDL
MODEL        6
USER    Run = 6
USER    Cluster Rank = 4
USER    Number of conformations in this cluster = 2
USER  
USER    RMSD from reference structure       = 22.873 A
USER  
USER    Estimated Free Energy of Binding    =   -3.53 kcal/mol  [=(1)+(2)+(3)-(4)]
USER    Estimated Inhibition Constant, Ki   =    2.58 mM (millimolar)  [Temperature = 298.15 K]
USER    
USER    (1) Final Intermolecular Energy     =   -5.32 kcal/mol
USER        vdW + Hbond + desolv Energy     =   -4.25 kcal/mol
USER        Electrostatic Energy            =   -1.07 kcal/mol
USER    (2) Final Total Internal Energy     =   -2.00 kcal/mol
USER    (3) Torsional Free Energy           =   +1.79 kcal/mol
USER    (4) Unbound System's Energy  [=(2)] =   -2.00 kcal/mol
USER    
USER    
USER  
USER    DPF = ascorbic_acid.dpf
USER    NEWDPF move	ascorbic_acid.pdbqt
USER    NEWDPF about	2.770437 0.777937 -0.375688
USER    NEWDPF tran0	12.615215 24.152438 4.126582
USER    NEWDPF axisangle0	-0.691434 -0.169886 0.702181 81.084814
USER    NEWDPF quaternion0	-0.449439 -0.110428 0.456425 0.759925
USER    NEWDPF dihe0	-151.47 20.42 77.15 -16.02 80.18 159.13 
USER  
USER                              x       y       z    vdW   Elec        q     RMS 
ATOM      1  C   UNL     1      13.828  24.749   4.766 -0.37 -0.30    +0.188    22.873
ATOM      2  C   UNL     1      12.917  23.530   4.509 -0.19 -0.23    +0.277    22.873
ATOM      3  C   UNL     1      13.637  22.273   4.172 -0.27 -0.13    +0.186    22.873
ATOM      4  C   UNL     1      13.404  21.319   5.070 -0.21 -0.07    +0.244    22.873
ATOM      5  C   UNL     1      12.496  21.904   6.077 -0.21 -0.05    +0.377    22.873
ATOM      6  O   UNL     1      12.211  23.190   5.715 -0.05 +0.18    -0.445    22.873
ATOM      7  O   UNL     1      12.048  21.341   7.058 -1.17 -0.07    -0.242    22.873
ATOM      8  O   UNL     1      14.386  22.177   3.031 -0.12 +0.52    -0.505    22.873
ATOM      9  H   UNL     1      14.398  23.035   2.574 -0.24 -0.64    +0.293    22.873
ATOM     10  O   UNL     1      13.839  20.026   5.074 -0.05 +0.06    -0.499    22.873
ATOM     11  H   UNL     1      14.463  19.901   4.341 +0.18 -0.06    +0.294    22.873
ATOM     12  O   UNL     1      13.402  25.501   5.910 -0.23 +0.55    -0.386    22.873
ATOM     13  H   UNL     1      14.194  25.833   6.371 -0.40 -0.54    +0.211    22.873
ATOM     14  C   UNL     1      15.291  24.314   4.967 -0.37 -0.37    +0.192    22.873
ATOM     15  O   UNL     1      15.620  24.193   6.350 -0.14 +0.63    -0.394    22.873
ATOM     16  H   UNL     1      15.300  24.990   6.810 -0.41 -0.55    +0.210    22.873
TER
ENDMDL


AVSFLD: # AVS field file
AVSFLD: #
AVSFLD: # Created by AutoDock
AVSFLD: #
AVSFLD: ndim=2           # number of dimensions in the field
AVSFLD: nspace=1         # number of physical coordinates
AVSFLD: veclen=7         # vector size
AVSFLD: dim1=16          # atoms
AVSFLD: dim2=4           # conformations
AVSFLD: data=Real       # data type (byte,integer,Real,double)
AVSFLD: field=uniform    # field coordinate layout
AVSFLD: label= x y z vdW Elec q RMS
AVSFLD: variable 1 file = ascorbic_acid.dlg.pdb filetype = ascii offset = 5 stride = 12
AVSFLD: variable 2 file = ascorbic_acid.dlg.pdb filetype = ascii offset = 6 stride = 12
AVSFLD: variable 3 file = ascorbic_acid.dlg.pdb filetype = ascii offset = 7 stride = 12
AVSFLD: variable 4 file = ascorbic_acid.dlg.pdb filetype = ascii offset = 8 stride = 12
AVSFLD: variable 5 file = ascorbic_acid.dlg.pdb filetype = ascii offset = 9 stride = 12
AVSFLD: variable 6 file = ascorbic_acid.dlg.pdb filetype = ascii offset = 10 stride = 12
AVSFLD: variable 7 file = ascorbic_acid.dlg.pdb filetype = ascii offset = 11 stride = 12
AVSFLD: # end of file

>>> Closing the docking parameter file (DPF)...
This docking finished at:			0:23 11" a.m., 09/14/2026


________________________________________________________________________________

autodock4: Successful Completion on "VP"

Real= 1m 20.06s,  CPU= 1m 19.96s,  System= 0.05s
________________________________________________________________________________

