REMARK SMILES O=C(O)CC(O)(CC(=O)O)C(=O)O
REMARK SMILES IDX 5 1 4 2 2 3 1 4 3 5 6 7 7 9 8 10 9 11 10 12 11 14 12 15
REMARK SMILES IDX 13 16
REMARK H PARENT 3 6 6 8 10 13 13 17
ROOT
ATOM      1  C   UNL     1       4.692   0.728   0.716  1.00  0.00    +0.182 C 
ENDROOT
BRANCH   1   2
ATOM      2  C   UNL     1       3.190   0.772   1.023  1.00  0.00    +0.170 C 
BRANCH   2   3
ATOM      3  C   UNL     1       2.855   0.342   2.428  1.00  0.00    +0.306 C 
ATOM      4  O   UNL     1       2.549  -0.807   2.714  1.00  0.00    -0.252 OA
BRANCH   3   5
ATOM      5  O   UNL     1       2.903   1.326   3.348  1.00  0.00    -0.481 OA
ATOM      6  H   UNL     1       3.302   2.175   3.052  1.00  0.00    +0.296 HD
ENDBRANCH   3   5
ENDBRANCH   2   3
ENDBRANCH   1   2
BRANCH   1   7
ATOM      7  O   UNL     1       5.230  -0.606   0.743  1.00  0.00    -0.377 OA
ATOM      8  H   UNL     1       4.620  -1.176   0.220  1.00  0.00    +0.212 HD
ENDBRANCH   1   7
BRANCH   1   9
ATOM      9  C   UNL     1       5.065   1.387  -0.621  1.00  0.00    +0.170 C 
BRANCH   9  10
ATOM     10  C   UNL     1       4.350   0.762  -1.786  1.00  0.00    +0.306 C 
ATOM     11  O   UNL     1       3.875  -0.362  -1.771  1.00  0.00    -0.252 OA
BRANCH  10  12
ATOM     12  O   UNL     1       4.308   1.558  -2.874  1.00  0.00    -0.481 OA
ATOM     13  H   UNL     1       4.754   2.422  -2.780  1.00  0.00    +0.296 HD
ENDBRANCH  10  12
ENDBRANCH   9  10
ENDBRANCH   1   9
BRANCH   1  14
ATOM     14  C   UNL     1       5.439   1.530   1.782  1.00  0.00    +0.336 C 
ATOM     15  O   UNL     1       5.022   2.583   2.249  1.00  0.00    -0.249 OA
BRANCH  14  16
ATOM     16  O   UNL     1       6.615   0.962   2.126  1.00  0.00    -0.479 OA
ATOM     17  H   UNL     1       6.661   0.069   1.701  1.00  0.00    +0.296 HD
ENDBRANCH  14  16
ENDBRANCH   1  14
TORSDOF 9
