REMARK SMILES O=C(O)CN(CCN(CC(=O)O)CC(=O)O)CC(=O)O
REMARK SMILES IDX 6 1 5 2 4 3 2 4 1 5 3 6 17 8 18 9 19 10 20 11 7 13 8 14 9 15
REMARK SMILES IDX 10 16 11 17 12 18 13 20 14 21 15 22 16 23
REMARK H PARENT 3 7 20 12 12 19 16 24
ROOT
ATOM      1  C   UNL     1       5.273   0.031  -2.165  1.00  0.00    +0.101 C 
ENDROOT
BRANCH   1   2
ATOM      2  N   UNL     1       4.500  -0.101  -0.896  1.00  0.00    -0.281 NA
BRANCH   2   3
ATOM      3  C   UNL     1       3.053  -0.108  -1.265  1.00  0.00    +0.208 C 
BRANCH   3   4
ATOM      4  C   UNL     1       2.162  -0.215  -0.038  1.00  0.00    +0.317 C 
ATOM      5  O   UNL     1       1.210  -0.980   0.044  1.00  0.00    -0.251 OA
BRANCH   4   6
ATOM      6  O   UNL     1       2.589   0.548   0.992  1.00  0.00    -0.480 OA
ATOM      7  H   UNL     1       3.433   0.990   0.746  1.00  0.00    +0.296 HD
ENDBRANCH   4   6
ENDBRANCH   3   4
ENDBRANCH   2   3
BRANCH   2   8
ATOM      8  C   UNL     1       4.903  -1.295  -0.101  1.00  0.00    +0.208 C 
BRANCH   8   9
ATOM      9  C   UNL     1       4.751  -2.626  -0.827  1.00  0.00    +0.317 C 
ATOM     10  O   UNL     1       5.634  -3.118  -1.518  1.00  0.00    -0.251 OA
BRANCH   9  11
ATOM     11  O   UNL     1       3.538  -3.206  -0.689  1.00  0.00    -0.480 OA
ATOM     12  H   UNL     1       2.886  -2.743  -0.122  1.00  0.00    +0.296 HD
ENDBRANCH   9  11
ENDBRANCH   8   9
ENDBRANCH   2   8
ENDBRANCH   1   2
BRANCH   1  13
ATOM     13  C   UNL     1       6.823   0.102  -2.074  1.00  0.00    +0.101 C 
BRANCH  13  14
ATOM     14  N   UNL     1       7.513   0.202  -3.391  1.00  0.00    -0.281 NA
BRANCH  14  15
ATOM     15  C   UNL     1       7.077   1.370  -4.207  1.00  0.00    +0.208 C 
BRANCH  15  16
ATOM     16  C   UNL     1       7.388   2.735  -3.591  1.00  0.00    +0.317 C 
ATOM     17  O   UNL     1       6.878   3.146  -2.558  1.00  0.00    -0.251 OA
BRANCH  16  18
ATOM     18  O   UNL     1       8.294   3.460  -4.281  1.00  0.00    -0.480 OA
ATOM     19  H   UNL     1       8.723   3.007  -5.038  1.00  0.00    +0.296 HD
ENDBRANCH  16  18
ENDBRANCH  15  16
ENDBRANCH  14  15
BRANCH  14  20
ATOM     20  C   UNL     1       8.982   0.196  -3.177  1.00  0.00    +0.208 C 
BRANCH  20  21
ATOM     21  C   UNL     1       9.715   0.217  -4.513  1.00  0.00    +0.317 C 
ATOM     22  O   UNL     1      10.395   1.155  -4.903  1.00  0.00    -0.251 OA
BRANCH  21  23
ATOM     23  O   UNL     1       9.419  -0.848  -5.295  1.00  0.00    -0.480 OA
ATOM     24  H   UNL     1       8.736  -1.412  -4.871  1.00  0.00    +0.296 HD
ENDBRANCH  21  23
ENDBRANCH  20  21
ENDBRANCH  14  20
ENDBRANCH  13  14
ENDBRANCH   1  13
TORSDOF 15
