MODEL 1
REMARK minimizedAffinity -4.70184612
REMARK minimizedRMSD -1
REMARK SMILES O=C1O[C@@H]([C@@H](O)CO)C(O)=C1O
REMARK SMILES IDX 5 1 4 2 9 3 11 4 2 5 3 6 1 7 10 8 12 10 6 12 7 14 8 15
REMARK H PARENT 10 9 12 11 6 13 8 16
ROOT
ATOM      1  C   UNL     1      51.099   8.401  12.419  1.00  0.00    +0.188 C 
ENDROOT
BRANCH   1   2
ATOM      2  C   UNL     1      51.807   8.188  13.775  1.00  0.00    +0.277 C 
ATOM      3  C   UNL     1      51.704   9.333  14.719  1.00  0.00    +0.186 C 
ATOM      4  C   UNL     1      51.073   8.988  15.839  1.00  0.00    +0.244 C 
ATOM      5  C   UNL     1      50.714   7.563  15.697  1.00  0.00    +0.377 C 
ATOM      6  O   UNL     1      51.172   7.115  14.490  1.00  0.00    -0.445 OA
ATOM      7  O   UNL     1      50.129   6.880  16.516  1.00  0.00    -0.242 OA
BRANCH   3   8
ATOM      8  O   UNL     1      52.261  10.545  14.417  1.00  0.00    -0.505 OA
ATOM      9  H   UNL     1      51.798  11.249  14.902  1.00  0.00    +0.293 HD
ENDBRANCH   3   8
BRANCH   4  10
ATOM     10  O   UNL     1      50.835   9.742  16.952  1.00  0.00    -0.499 OA
ATOM     11  H   UNL     1      51.388  10.538  16.916  1.00  0.00    +0.294 HD
ENDBRANCH   4  10
ENDBRANCH   1   2
BRANCH   1  12
ATOM     12  O   UNL     1      50.556   9.723  12.304  1.00  0.00    -0.386 OA
ATOM     13  H   UNL     1      51.297  10.357  12.276  1.00  0.00    +0.211 HD
ENDBRANCH   1  12
BRANCH   1  14
ATOM     14  C   UNL     1      52.064   8.150  11.246  1.00  0.00    +0.192 C 
BRANCH  14  15
ATOM     15  O   UNL     1      53.253   8.930  11.363  1.00  0.00    -0.394 OA
ATOM     16  H   UNL     1      53.026   9.763  11.814  1.00  0.00    +0.210 HD
ENDBRANCH  14  15
ENDBRANCH   1  14
TORSDOF 6
ENDMDL
MODEL 2
REMARK minimizedAffinity -4.68843317
REMARK minimizedRMSD -1
REMARK SMILES O=C1O[C@@H]([C@@H](O)CO)C(O)=C1O
REMARK SMILES IDX 5 1 4 2 9 3 11 4 2 5 3 6 1 7 10 8 12 10 6 12 7 14 8 15
REMARK H PARENT 10 9 12 11 6 13 8 16
ROOT
ATOM      1  C   UNL     1      46.897  17.442   7.387  1.00  0.00    +0.188 C 
ENDROOT
BRANCH   1   2
ATOM      2  C   UNL     1      46.947  16.538   6.137  1.00  0.00    +0.277 C 
ATOM      3  C   UNL     1      48.310  16.310   5.585  1.00  0.00    +0.186 C 
ATOM      4  C   UNL     1      48.641  15.022   5.615  1.00  0.00    +0.244 C 
ATOM      5  C   UNL     1      47.490  14.306   6.202  1.00  0.00    +0.377 C 
ATOM      6  O   UNL     1      46.506  15.213   6.479  1.00  0.00    -0.445 OA
ATOM      7  O   UNL     1      47.406  13.107   6.392  1.00  0.00    -0.242 OA
BRANCH   3   8
ATOM      8  O   UNL     1      49.046  17.348   5.083  1.00  0.00    -0.505 OA
ATOM      9  H   UNL     1      49.993  17.132   5.133  1.00  0.00    +0.293 HD
ENDBRANCH   3   8
BRANCH   4  10
ATOM     10  O   UNL     1      49.775  14.421   5.151  1.00  0.00    -0.499 OA
ATOM     11  H   UNL     1      50.250  15.044   4.580  1.00  0.00    +0.294 HD
ENDBRANCH   4  10
ENDBRANCH   1   2
BRANCH   1  12
ATOM     12  O   UNL     1      47.497  18.721   7.144  1.00  0.00    -0.386 OA
ATOM     13  H   UNL     1      46.947  19.199   6.495  1.00  0.00    +0.211 HD
ENDBRANCH   1  12
BRANCH   1  14
ATOM     14  C   UNL     1      45.448  17.648   7.862  1.00  0.00    +0.192 C 
BRANCH  14  15
ATOM     15  O   UNL     1      45.396  18.216   9.171  1.00  0.00    -0.394 OA
ATOM     16  H   UNL     1      46.175  17.906   9.667  1.00  0.00    +0.210 HD
ENDBRANCH  14  15
ENDBRANCH   1  14
TORSDOF 6
ENDMDL
MODEL 3
REMARK minimizedAffinity -4.66750383
REMARK minimizedRMSD -1
REMARK SMILES O=C1O[C@@H]([C@@H](O)CO)C(O)=C1O
REMARK SMILES IDX 5 1 4 2 9 3 11 4 2 5 3 6 1 7 10 8 12 10 6 12 7 14 8 15
REMARK H PARENT 10 9 12 11 6 13 8 16
ROOT
ATOM      1  C   UNL     1      51.367   9.338  14.104  1.00  0.00    +0.188 C 
ENDROOT
BRANCH   1   2
ATOM      2  C   UNL     1      50.570   8.584  15.190  1.00  0.00    +0.277 C 
ATOM      3  C   UNL     1      50.317   9.363  16.432  1.00  0.00    +0.186 C 
ATOM      4  C   UNL     1      49.016   9.532  16.647  1.00  0.00    +0.244 C 
ATOM      5  C   UNL     1      48.315   8.860  15.534  1.00  0.00    +0.377 C 
ATOM      6  O   UNL     1      49.246   8.297  14.708  1.00  0.00    -0.445 OA
ATOM      7  O   UNL     1      47.111   8.790  15.377  1.00  0.00    -0.242 OA
BRANCH   3   8
ATOM      8  O   UNL     1      51.353   9.774  17.226  1.00  0.00    -0.505 OA
ATOM      9  H   UNL     1      51.084  10.556  17.736  1.00  0.00    +0.293 HD
ENDBRANCH   3   8
BRANCH   4  10
ATOM     10  O   UNL     1      48.396  10.140  17.700  1.00  0.00    -0.499 OA
ATOM     11  H   UNL     1      49.039  10.261  18.416  1.00  0.00    +0.294 HD
ENDBRANCH   4  10
ENDBRANCH   1   2
BRANCH   1  12
ATOM     12  O   UNL     1      52.385  10.173  14.673  1.00  0.00    -0.386 OA
ATOM     13  H   UNL     1      53.054   9.598  15.089  1.00  0.00    +0.211 HD
ENDBRANCH   1  12
BRANCH   1  14
ATOM     14  C   UNL     1      52.019   8.355  13.114  1.00  0.00    +0.192 C 
BRANCH  14  15
ATOM     15  O   UNL     1      52.519   9.024  11.957  1.00  0.00    -0.394 OA
ATOM     16  H   UNL     1      51.951   9.796  11.784  1.00  0.00    +0.210 HD
ENDBRANCH  14  15
ENDBRANCH   1  14
TORSDOF 6
ENDMDL
MODEL 4
REMARK minimizedAffinity -4.56130648
REMARK minimizedRMSD -1
REMARK SMILES O=C1O[C@@H]([C@@H](O)CO)C(O)=C1O
REMARK SMILES IDX 5 1 4 2 9 3 11 4 2 5 3 6 1 7 10 8 12 10 6 12 7 14 8 15
REMARK H PARENT 10 9 12 11 6 13 8 16
ROOT
ATOM      1  C   UNL     1      50.565   7.923  15.943  1.00  0.00    +0.188 C 
ENDROOT
BRANCH   1   2
ATOM      2  C   UNL     1      50.334   8.736  14.651  1.00  0.00    +0.277 C 
ATOM      3  C   UNL     1      51.575   9.212  13.983  1.00  0.00    +0.186 C 
ATOM      4  C   UNL     1      51.696   8.708  12.758  1.00  0.00    +0.244 C 
ATOM      5  C   UNL     1      50.515   7.848  12.540  1.00  0.00    +0.377 C 
ATOM      6  O   UNL     1      49.725   7.898  13.654  1.00  0.00    -0.445 OA
ATOM      7  O   UNL     1      50.260   7.213  11.534  1.00  0.00    -0.242 OA
BRANCH   3   8
ATOM      8  O   UNL     1      52.410  10.100  14.604  1.00  0.00    -0.505 OA
ATOM      9  H   UNL     1      53.309  10.009  14.246  1.00  0.00    +0.293 HD
ENDBRANCH   3   8
BRANCH   4  10
ATOM     10  O   UNL     1      52.662   8.951  11.825  1.00  0.00    -0.499 OA
ATOM     11  H   UNL     1      53.167   9.735  12.093  1.00  0.00    +0.294 HD
ENDBRANCH   4  10
ENDBRANCH   1   2
BRANCH   1  12
ATOM     12  O   UNL     1      51.900   7.401  16.012  1.00  0.00    -0.386 OA
ATOM     13  H   UNL     1      52.517   8.151  16.101  1.00  0.00    +0.211 HD
ENDBRANCH   1  12
BRANCH   1  14
ATOM     14  C   UNL     1      50.296   8.781  17.192  1.00  0.00    +0.192 C 
BRANCH  14  15
ATOM     15  O   UNL     1      51.338   9.730  17.416  1.00  0.00    -0.394 OA
ATOM     16  H   UNL     1      52.173   9.346  17.094  1.00  0.00    +0.210 HD
ENDBRANCH  14  15
ENDBRANCH   1  14
TORSDOF 6
ENDMDL
MODEL 5
REMARK minimizedAffinity -4.49969864
REMARK minimizedRMSD -1
REMARK SMILES O=C1O[C@@H]([C@@H](O)CO)C(O)=C1O
REMARK SMILES IDX 5 1 4 2 9 3 11 4 2 5 3 6 1 7 10 8 12 10 6 12 7 14 8 15
REMARK H PARENT 10 9 12 11 6 13 8 16
ROOT
ATOM      1  C   UNL     1      61.851  11.901   6.242  1.00  0.00    +0.188 C 
ENDROOT
BRANCH   1   2
ATOM      2  C   UNL     1      61.885  12.295   7.735  1.00  0.00    +0.277 C 
ATOM      3  C   UNL     1      60.690  11.882   8.517  1.00  0.00    +0.186 C 
ATOM      4  C   UNL     1      61.012  11.043   9.498  1.00  0.00    +0.244 C 
ATOM      5  C   UNL     1      62.474  10.847   9.419  1.00  0.00    +0.377 C 
ATOM      6  O   UNL     1      62.962  11.606   8.392  1.00  0.00    -0.445 OA
ATOM      7  O   UNL     1      63.150  10.150  10.151  1.00  0.00    -0.242 OA
BRANCH   3   8
ATOM      8  O   UNL     1      59.452  12.388   8.229  1.00  0.00    -0.505 OA
ATOM      9  H   UNL     1      58.766  11.768   8.529  1.00  0.00    +0.293 HD
ENDBRANCH   3   8
BRANCH   4  10
ATOM     10  O   UNL     1      60.206  10.494  10.452  1.00  0.00    -0.499 OA
ATOM     11  H   UNL     1      59.361  10.970  10.462  1.00  0.00    +0.294 HD
ENDBRANCH   4  10
ENDBRANCH   1   2
BRANCH   1  12
ATOM     12  O   UNL     1      60.545  12.075   5.675  1.00  0.00    -0.386 OA
ATOM     13  H   UNL     1      60.341  13.028   5.664  1.00  0.00    +0.211 HD
ENDBRANCH   1  12
BRANCH   1  14
ATOM     14  C   UNL     1      62.865  12.725   5.429  1.00  0.00    +0.192 C 
BRANCH  14  15
ATOM     15  O   UNL     1      62.675  14.127   5.613  1.00  0.00    -0.394 OA
ATOM     16  H   UNL     1      61.727  14.287   5.769  1.00  0.00    +0.210 HD
ENDBRANCH  14  15
ENDBRANCH   1  14
TORSDOF 6
ENDMDL
MODEL 6
REMARK minimizedAffinity -4.44511604
REMARK minimizedRMSD -1
REMARK SMILES O=C1O[C@@H]([C@@H](O)CO)C(O)=C1O
REMARK SMILES IDX 5 1 4 2 9 3 11 4 2 5 3 6 1 7 10 8 12 10 6 12 7 14 8 15
REMARK H PARENT 10 9 12 11 6 13 8 16
ROOT
ATOM      1  C   UNL     1      51.874   9.119  14.745  1.00  0.00    +0.188 C 
ENDROOT
BRANCH   1   2
ATOM      2  C   UNL     1      51.580   8.135  13.592  1.00  0.00    +0.277 C 
ATOM      3  C   UNL     1      51.546   8.751  12.239  1.00  0.00    +0.186 C 
ATOM      4  C   UNL     1      52.482   8.239  11.444  1.00  0.00    +0.244 C 
ATOM      5  C   UNL     1      53.208   7.232  12.244  1.00  0.00    +0.377 C 
ATOM      6  O   UNL     1      52.648   7.177  13.490  1.00  0.00    -0.445 OA
ATOM      7  O   UNL     1      54.135   6.541  11.867  1.00  0.00    -0.242 OA
BRANCH   3   8
ATOM      8  O   UNL     1      50.602   9.687  11.917  1.00  0.00    -0.505 OA
ATOM      9  H   UNL     1      50.931  10.250  11.196  1.00  0.00    +0.293 HD
ENDBRANCH   3   8
BRANCH   4  10
ATOM     10  O   UNL     1      52.726   8.508  10.128  1.00  0.00    -0.499 OA
ATOM     11  H   UNL     1      51.969   8.989   9.760  1.00  0.00    +0.294 HD
ENDBRANCH   4  10
ENDBRANCH   1   2
BRANCH   1  12
ATOM     12  O   UNL     1      52.179  10.433  14.258  1.00  0.00    -0.386 OA
ATOM     13  H   UNL     1      51.376  10.800  13.844  1.00  0.00    +0.211 HD
ENDBRANCH   1  12
BRANCH   1  14
ATOM     14  C   UNL     1      50.683   9.206  15.715  1.00  0.00    +0.192 C 
BRANCH  14  15
ATOM     15  O   UNL     1      51.059   9.786  16.963  1.00  0.00    -0.394 OA
ATOM     16  H   UNL     1      51.988   9.552  17.139  1.00  0.00    +0.210 HD
ENDBRANCH  14  15
ENDBRANCH   1  14
TORSDOF 6
ENDMDL
MODEL 7
REMARK minimizedAffinity -4.30773067
REMARK minimizedRMSD -1
REMARK SMILES O=C1O[C@@H]([C@@H](O)CO)C(O)=C1O
REMARK SMILES IDX 5 1 4 2 9 3 11 4 2 5 3 6 1 7 10 8 12 10 6 12 7 14 8 15
REMARK H PARENT 10 9 12 11 6 13 8 16
ROOT
ATOM      1  C   UNL     1      61.848  10.637   9.192  1.00  0.00    +0.188 C 
ENDROOT
BRANCH   1   2
ATOM      2  C   UNL     1      61.192  11.813   8.435  1.00  0.00    +0.277 C 
ATOM      3  C   UNL     1      61.920  12.254   7.215  1.00  0.00    +0.186 C 
ATOM      4  C   UNL     1      61.176  12.108   6.122  1.00  0.00    +0.244 C 
ATOM      5  C   UNL     1      59.883  11.550   6.566  1.00  0.00    +0.377 C 
ATOM      6  O   UNL     1      59.912  11.406   7.924  1.00  0.00    -0.445 OA
ATOM      7  O   UNL     1      58.932  11.280   5.857  1.00  0.00    -0.242 OA
BRANCH   3   8
ATOM      8  O   UNL     1      63.180  12.779   7.300  1.00  0.00    -0.505 OA
ATOM      9  H   UNL     1      63.647  12.650   6.457  1.00  0.00    +0.293 HD
ENDBRANCH   3   8
BRANCH   4  10
ATOM     10  O   UNL     1      61.473  12.450   4.835  1.00  0.00    -0.499 OA
ATOM     11  H   UNL     1      62.250  13.031   4.835  1.00  0.00    +0.294 HD
ENDBRANCH   4  10
ENDBRANCH   1   2
BRANCH   1  12
ATOM     12  O   UNL     1      63.226  10.900   9.493  1.00  0.00    -0.386 OA
ATOM     13  H   UNL     1      63.264  11.633  10.134  1.00  0.00    +0.211 HD
ENDBRANCH   1  12
BRANCH   1  14
ATOM     14  C   UNL     1      61.097  10.334  10.500  1.00  0.00    +0.192 C 
BRANCH  14  15
ATOM     15  O   UNL     1      59.712  10.077  10.267  1.00  0.00    -0.394 OA
ATOM     16  H   UNL     1      59.432  10.602   9.496  1.00  0.00    +0.210 HD
ENDBRANCH  14  15
ENDBRANCH   1  14
TORSDOF 6
ENDMDL
MODEL 8
REMARK minimizedAffinity -4.09226799
REMARK minimizedRMSD -1
REMARK SMILES O=C1O[C@@H]([C@@H](O)CO)C(O)=C1O
REMARK SMILES IDX 5 1 4 2 9 3 11 4 2 5 3 6 1 7 10 8 12 10 6 12 7 14 8 15
REMARK H PARENT 10 9 12 11 6 13 8 16
ROOT
ATOM      1  C   UNL     1      59.674  10.975   7.379  1.00  0.00    +0.188 C 
ENDROOT
BRANCH   1   2
ATOM      2  C   UNL     1      60.481  11.562   8.557  1.00  0.00    +0.277 C 
ATOM      3  C   UNL     1      60.770  10.602   9.656  1.00  0.00    +0.186 C 
ATOM      4  C   UNL     1      62.078  10.425   9.820  1.00  0.00    +0.244 C 
ATOM      5  C   UNL     1      62.746  11.277   8.815  1.00  0.00    +0.377 C 
ATOM      6  O   UNL     1      61.790  11.946   8.104  1.00  0.00    -0.445 OA
ATOM      7  O   UNL     1      63.946  11.393   8.650  1.00  0.00    -0.242 OA
BRANCH   3   8
ATOM      8  O   UNL     1      59.757  10.052  10.392  1.00  0.00    -0.505 OA
ATOM      9  H   UNL     1      60.048   9.204  10.768  1.00  0.00    +0.293 HD
ENDBRANCH   3   8
BRANCH   4  10
ATOM     10  O   UNL     1      62.727   9.670  10.753  1.00  0.00    -0.499 OA
ATOM     11  H   UNL     1      62.101   9.426  11.452  1.00  0.00    +0.294 HD
ENDBRANCH   4  10
ENDBRANCH   1   2
BRANCH   1  12
ATOM     12  O   UNL     1      59.297  11.986   6.435  1.00  0.00    -0.386 OA
ATOM     13  H   UNL     1      60.107  12.325   6.010  1.00  0.00    +0.211 HD
ENDBRANCH   1  12
BRANCH   1  14
ATOM     14  C   UNL     1      60.476   9.881   6.651  1.00  0.00    +0.192 C 
BRANCH  14  15
ATOM     15  O   UNL     1      61.359  10.434   5.676  1.00  0.00    -0.394 OA
ATOM     16  H   UNL     1      60.952  11.246   5.323  1.00  0.00    +0.210 HD
ENDBRANCH  14  15
ENDBRANCH   1  14
TORSDOF 6
ENDMDL
MODEL 9
REMARK minimizedAffinity -4.00295496
REMARK minimizedRMSD -1
REMARK SMILES O=C1O[C@@H]([C@@H](O)CO)C(O)=C1O
REMARK SMILES IDX 5 1 4 2 9 3 11 4 2 5 3 6 1 7 10 8 12 10 6 12 7 14 8 15
REMARK H PARENT 10 9 12 11 6 13 8 16
ROOT
ATOM      1  C   UNL     1      59.834  11.496   7.409  1.00  0.00    +0.188 C 
ENDROOT
BRANCH   1   2
ATOM      2  C   UNL     1      59.772   9.976   7.671  1.00  0.00    +0.277 C 
ATOM      3  C   UNL     1      59.116   9.590   8.949  1.00  0.00    +0.186 C 
ATOM      4  C   UNL     1      58.034   8.846   8.739  1.00  0.00    +0.244 C 
ATOM      5  C   UNL     1      57.908   8.693   7.275  1.00  0.00    +0.377 C 
ATOM      6  O   UNL     1      58.948   9.346   6.676  1.00  0.00    -0.445 OA
ATOM      7  O   UNL     1      57.043   8.073   6.686  1.00  0.00    -0.242 OA
BRANCH   3   8
ATOM      8  O   UNL     1      59.653   9.956  10.153  1.00  0.00    -0.505 OA
ATOM      9  H   UNL     1      58.955   9.983  10.829  1.00  0.00    +0.293 HD
ENDBRANCH   3   8
BRANCH   4  10
ATOM     10  O   UNL     1      57.207   8.262   9.654  1.00  0.00    -0.499 OA
ATOM     11  H   UNL     1      57.638   8.280  10.523  1.00  0.00    +0.294 HD
ENDBRANCH   4  10
ENDBRANCH   1   2
BRANCH   1  12
ATOM     12  O   UNL     1      59.986  12.241   8.625  1.00  0.00    -0.386 OA
ATOM     13  H   UNL     1      60.863  12.039   9.000  1.00  0.00    +0.211 HD
ENDBRANCH   1  12
BRANCH   1  14
ATOM     14  C   UNL     1      60.993  11.846   6.457  1.00  0.00    +0.192 C 
BRANCH  14  15
ATOM     15  O   UNL     1      61.188  10.835   5.469  1.00  0.00    -0.394 OA
ATOM     16  H   UNL     1      60.941   9.977   5.859  1.00  0.00    +0.210 HD
ENDBRANCH  14  15
ENDBRANCH   1  14
TORSDOF 6
ENDMDL
