MODEL 1
REMARK minimizedAffinity -4.70122194
REMARK minimizedRMSD -1
REMARK SMILES CC(=O)Oc1ccccc1C(=O)O
REMARK SMILES IDX 5 1 6 2 7 3 8 4 9 5 10 6 4 7 2 8 3 9 1 10 11 11 12 12 13 13
REMARK H PARENT 13 14
ROOT
ATOM      1  C   UNL     1      61.172  11.526   8.115  1.00  0.00    +0.145 A 
ATOM      2  C   UNL     1      61.835  12.348   7.199  1.00  0.00    +0.048 A 
ATOM      3  C   UNL     1      63.229  12.428   7.216  1.00  0.00    +0.004 A 
ATOM      4  C   UNL     1      63.960  11.716   8.163  1.00  0.00    +0.001 A 
ATOM      5  C   UNL     1      63.300  10.927   9.104  1.00  0.00    +0.019 A 
ATOM      6  C   UNL     1      61.900  10.833   9.098  1.00  0.00    +0.102 A 
ENDROOT
BRANCH   1   7
ATOM      7  O   UNL     1      59.761  11.417   8.111  1.00  0.00    -0.426 OA
BRANCH   7   8
ATOM      8  C   UNL     1      59.094  10.689   7.117  1.00  0.00    +0.308 C 
ATOM      9  O   UNL     1      58.877  11.048   5.969  1.00  0.00    -0.252 OA
ATOM     10  C   UNL     1      58.710   9.345   7.663  1.00  0.00    +0.139 C 
ENDBRANCH   7   8
ENDBRANCH   1   7
BRANCH   6  11
ATOM     11  C   UNL     1      61.283   9.976  10.143  1.00  0.00    +0.339 C 
ATOM     12  O   UNL     1      61.664   8.840  10.374  1.00  0.00    -0.246 OA
BRANCH  11  13
ATOM     13  O   UNL     1      60.323  10.582  10.873  1.00  0.00    -0.478 OA
ATOM     14  H   UNL     1      60.156  11.508  10.615  1.00  0.00    +0.297 HD
ENDBRANCH  11  13
ENDBRANCH   6  11
TORSDOF 4
ENDMDL
MODEL 2
REMARK minimizedAffinity -4.49247742
REMARK minimizedRMSD -1
REMARK SMILES CC(=O)Oc1ccccc1C(=O)O
REMARK SMILES IDX 5 1 6 2 7 3 8 4 9 5 10 6 4 7 2 8 3 9 1 10 11 11 12 12 13 13
REMARK H PARENT 13 14
ROOT
ATOM      1  C   UNL     1      59.963  11.177   7.632  1.00  0.00    +0.145 A 
ATOM      2  C   UNL     1      59.435  11.433   6.363  1.00  0.00    +0.048 A 
ATOM      3  C   UNL     1      58.507  10.552   5.804  1.00  0.00    +0.004 A 
ATOM      4  C   UNL     1      58.129   9.403   6.494  1.00  0.00    +0.001 A 
ATOM      5  C   UNL     1      58.684   9.124   7.742  1.00  0.00    +0.019 A 
ATOM      6  C   UNL     1      59.616  10.002   8.318  1.00  0.00    +0.102 A 
ENDROOT
BRANCH   1   7
ATOM      7  O   UNL     1      60.897  12.061   8.225  1.00  0.00    -0.426 OA
BRANCH   7   8
ATOM      8  C   UNL     1      62.183  12.218   7.694  1.00  0.00    +0.308 C 
ATOM      9  O   UNL     1      62.514  12.968   6.787  1.00  0.00    -0.252 OA
ATOM     10  C   UNL     1      63.140  11.341   8.447  1.00  0.00    +0.139 C 
ENDBRANCH   7   8
ENDBRANCH   1   7
BRANCH   6  11
ATOM     11  C   UNL     1      60.161   9.619   9.647  1.00  0.00    +0.339 C 
ATOM     12  O   UNL     1      60.693   8.541   9.855  1.00  0.00    -0.246 OA
BRANCH  11  13
ATOM     13  O   UNL     1      60.093  10.589  10.582  1.00  0.00    -0.478 OA
ATOM     14  H   UNL     1      59.690  11.419  10.263  1.00  0.00    +0.297 HD
ENDBRANCH  11  13
ENDBRANCH   6  11
TORSDOF 4
ENDMDL
MODEL 3
REMARK minimizedAffinity -4.20382357
REMARK minimizedRMSD -1
REMARK SMILES CC(=O)Oc1ccccc1C(=O)O
REMARK SMILES IDX 5 1 6 2 7 3 8 4 9 5 10 6 4 7 2 8 3 9 1 10 11 11 12 12 13 13
REMARK H PARENT 13 14
ROOT
ATOM      1  C   UNL     1      61.707  10.466   9.589  1.00  0.00    +0.145 A 
ATOM      2  C   UNL     1      62.634  11.366   9.053  1.00  0.00    +0.048 A 
ATOM      3  C   UNL     1      62.383  11.975   7.822  1.00  0.00    +0.004 A 
ATOM      4  C   UNL     1      61.227  11.664   7.110  1.00  0.00    +0.001 A 
ATOM      5  C   UNL     1      60.321  10.736   7.621  1.00  0.00    +0.019 A 
ATOM      6  C   UNL     1      60.558  10.118   8.860  1.00  0.00    +0.102 A 
ENDROOT
BRANCH   1   7
ATOM      7  O   UNL     1      61.932   9.845  10.841  1.00  0.00    -0.426 OA
BRANCH   7   8
ATOM      8  C   UNL     1      63.215   9.430  11.223  1.00  0.00    +0.308 C 
ATOM      9  O   UNL     1      63.963   9.994  12.008  1.00  0.00    -0.252 OA
ATOM     10  C   UNL     1      63.536   8.130  10.545  1.00  0.00    +0.139 C 
ENDBRANCH   7   8
ENDBRANCH   1   7
BRANCH   6  11
ATOM     11  C   UNL     1      59.542   9.137   9.321  1.00  0.00    +0.339 C 
ATOM     12  O   UNL     1      58.344   9.370   9.304  1.00  0.00    -0.246 OA
BRANCH  11  13
ATOM     13  O   UNL     1      60.043   7.938   9.684  1.00  0.00    -0.478 OA
ATOM     14  H   UNL     1      61.013   7.873   9.598  1.00  0.00    +0.297 HD
ENDBRANCH  11  13
ENDBRANCH   6  11
TORSDOF 4
ENDMDL
MODEL 4
REMARK minimizedAffinity -3.96936464
REMARK minimizedRMSD -1
REMARK SMILES CC(=O)Oc1ccccc1C(=O)O
REMARK SMILES IDX 5 1 6 2 7 3 8 4 9 5 10 6 4 7 2 8 3 9 1 10 11 11 12 12 13 13
REMARK H PARENT 13 14
ROOT
ATOM      1  C   UNL     1      60.104  10.857   7.546  1.00  0.00    +0.145 A 
ATOM      2  C   UNL     1      60.306  11.517   6.330  1.00  0.00    +0.048 A 
ATOM      3  C   UNL     1      61.475  12.250   6.120  1.00  0.00    +0.004 A 
ATOM      4  C   UNL     1      62.429  12.352   7.130  1.00  0.00    +0.001 A 
ATOM      5  C   UNL     1      62.213  11.728   8.358  1.00  0.00    +0.019 A 
ATOM      6  C   UNL     1      61.043  10.985   8.583  1.00  0.00    +0.102 A 
ENDROOT
BRANCH   1   7
ATOM      7  O   UNL     1      58.933  10.097   7.779  1.00  0.00    -0.426 OA
BRANCH   7   8
ATOM      8  C   UNL     1      58.668   8.932   7.047  1.00  0.00    +0.308 C 
ATOM      9  O   UNL     1      57.873   8.811   6.127  1.00  0.00    -0.252 OA
ATOM     10  C   UNL     1      59.559   7.827   7.537  1.00  0.00    +0.139 C 
ENDBRANCH   7   8
ENDBRANCH   1   7
BRANCH   6  11
ATOM     11  C   UNL     1      60.895  10.363   9.925  1.00  0.00    +0.339 C 
ATOM     12  O   UNL     1      61.838  10.195  10.681  1.00  0.00    -0.246 OA
BRANCH  11  13
ATOM     13  O   UNL     1      59.624  10.075  10.273  1.00  0.00    -0.478 OA
ATOM     14  H   UNL     1      58.965  10.311   9.593  1.00  0.00    +0.297 HD
ENDBRANCH  11  13
ENDBRANCH   6  11
TORSDOF 4
ENDMDL
MODEL 5
REMARK minimizedAffinity -3.86630869
REMARK minimizedRMSD -1
REMARK SMILES CC(=O)Oc1ccccc1C(=O)O
REMARK SMILES IDX 5 1 6 2 7 3 8 4 9 5 10 6 4 7 2 8 3 9 1 10 11 11 12 12 13 13
REMARK H PARENT 13 14
ROOT
ATOM      1  C   UNL     1      49.137   8.600  13.975  1.00  0.00    +0.145 A 
ATOM      2  C   UNL     1      48.010   8.592  13.147  1.00  0.00    +0.048 A 
ATOM      3  C   UNL     1      48.147   8.849  11.781  1.00  0.00    +0.004 A 
ATOM      4  C   UNL     1      49.398   9.144  11.246  1.00  0.00    +0.001 A 
ATOM      5  C   UNL     1      50.517   9.192  12.075  1.00  0.00    +0.019 A 
ATOM      6  C   UNL     1      50.397   8.933  13.450  1.00  0.00    +0.102 A 
ENDROOT
BRANCH   1   7
ATOM      7  O   UNL     1      49.027   8.330  15.360  1.00  0.00    -0.426 OA
BRANCH   7   8
ATOM      8  C   UNL     1      48.518   9.290  16.246  1.00  0.00    +0.308 C 
ATOM      9  O   UNL     1      47.376   9.723  16.277  1.00  0.00    -0.252 OA
ATOM     10  C   UNL     1      49.595   9.692  17.210  1.00  0.00    +0.139 C 
ENDBRANCH   7   8
ENDBRANCH   1   7
BRANCH   6  11
ATOM     11  C   UNL     1      51.642   9.015  14.257  1.00  0.00    +0.339 C 
ATOM     12  O   UNL     1      52.205   8.030  14.704  1.00  0.00    -0.246 OA
BRANCH  11  13
ATOM     13  O   UNL     1      52.146  10.261  14.386  1.00  0.00    -0.478 OA
ATOM     14  H   UNL     1      51.622  10.948  13.933  1.00  0.00    +0.297 HD
ENDBRANCH  11  13
ENDBRANCH   6  11
TORSDOF 4
ENDMDL
MODEL 6
REMARK minimizedAffinity -3.86076832
REMARK minimizedRMSD -1
REMARK SMILES CC(=O)Oc1ccccc1C(=O)O
REMARK SMILES IDX 5 1 6 2 7 3 8 4 9 5 10 6 4 7 2 8 3 9 1 10 11 11 12 12 13 13
REMARK H PARENT 13 14
ROOT
ATOM      1  C   UNL     1      59.994  10.333   8.541  1.00  0.00    +0.145 A 
ATOM      2  C   UNL     1      60.437   9.955   9.812  1.00  0.00    +0.048 A 
ATOM      3  C   UNL     1      61.729  10.285  10.227  1.00  0.00    +0.004 A 
ATOM      4  C   UNL     1      62.588  10.964   9.367  1.00  0.00    +0.001 A 
ATOM      5  C   UNL     1      62.164  11.307   8.084  1.00  0.00    +0.019 A 
ATOM      6  C   UNL     1      60.867  10.985   7.653  1.00  0.00    +0.102 A 
ENDROOT
BRANCH   1   7
ATOM      7  O   UNL     1      58.685  10.021   8.100  1.00  0.00    -0.426 OA
BRANCH   7   8
ATOM      8  C   UNL     1      58.072   8.813   8.456  1.00  0.00    +0.308 C 
ATOM      9  O   UNL     1      57.226   8.649   9.324  1.00  0.00    -0.252 OA
ATOM     10  C   UNL     1      58.581   7.719   7.564  1.00  0.00    +0.139 C 
ENDBRANCH   7   8
ENDBRANCH   1   7
BRANCH   6  11
ATOM     11  C   UNL     1      60.505  11.383   6.268  1.00  0.00    +0.339 C 
ATOM     12  O   UNL     1      60.956  12.381   5.730  1.00  0.00    -0.246 OA
BRANCH  11  13
ATOM     13  O   UNL     1      59.703  10.510   5.624  1.00  0.00    -0.478 OA
ATOM     14  H   UNL     1      59.462   9.729   6.156  1.00  0.00    +0.297 HD
ENDBRANCH  11  13
ENDBRANCH   6  11
TORSDOF 4
ENDMDL
MODEL 7
REMARK minimizedAffinity -3.8409915
REMARK minimizedRMSD -1
REMARK SMILES CC(=O)Oc1ccccc1C(=O)O
REMARK SMILES IDX 5 1 6 2 7 3 8 4 9 5 10 6 4 7 2 8 3 9 1 10 11 11 12 12 13 13
REMARK H PARENT 13 14
ROOT
ATOM      1  C   UNL     1      49.720   9.170  15.992  1.00  0.00    +0.145 A 
ATOM      2  C   UNL     1      48.331   9.139  16.149  1.00  0.00    +0.048 A 
ATOM      3  C   UNL     1      47.515   8.789  15.071  1.00  0.00    +0.004 A 
ATOM      4  C   UNL     1      48.078   8.502  13.831  1.00  0.00    +0.001 A 
ATOM      5  C   UNL     1      49.460   8.571  13.659  1.00  0.00    +0.019 A 
ATOM      6  C   UNL     1      50.294   8.918  14.734  1.00  0.00    +0.102 A 
ENDROOT
BRANCH   1   7
ATOM      7  O   UNL     1      50.570   9.509  17.072  1.00  0.00    -0.426 OA
BRANCH   7   8
ATOM      8  C   UNL     1      50.499   8.823  18.291  1.00  0.00    +0.308 C 
ATOM      9  O   UNL     1      50.116   9.271  19.362  1.00  0.00    -0.252 OA
ATOM     10  C   UNL     1      50.930   7.400  18.084  1.00  0.00    +0.139 C 
ENDBRANCH   7   8
ENDBRANCH   1   7
BRANCH   6  11
ATOM     11  C   UNL     1      51.753   8.975  14.456  1.00  0.00    +0.339 C 
ATOM     12  O   UNL     1      52.371   8.036  13.981  1.00  0.00    -0.246 OA
BRANCH  11  13
ATOM     13  O   UNL     1      52.324  10.174  14.694  1.00  0.00    -0.478 OA
ATOM     14  H   UNL     1      51.701  10.850  15.023  1.00  0.00    +0.297 HD
ENDBRANCH  11  13
ENDBRANCH   6  11
TORSDOF 4
ENDMDL
MODEL 8
REMARK minimizedAffinity -3.81548166
REMARK minimizedRMSD -1
REMARK SMILES CC(=O)Oc1ccccc1C(=O)O
REMARK SMILES IDX 5 1 6 2 7 3 8 4 9 5 10 6 4 7 2 8 3 9 1 10 11 11 12 12 13 13
REMARK H PARENT 13 14
ROOT
ATOM      1  C   UNL     1      51.304  10.774  22.410  1.00  0.00    +0.145 A 
ATOM      2  C   UNL     1      50.152  11.422  22.867  1.00  0.00    +0.048 A 
ATOM      3  C   UNL     1      48.898  11.027  22.397  1.00  0.00    +0.004 A 
ATOM      4  C   UNL     1      48.792  10.012  21.450  1.00  0.00    +0.001 A 
ATOM      5  C   UNL     1      49.942   9.391  20.962  1.00  0.00    +0.019 A 
ATOM      6  C   UNL     1      51.210   9.774  21.428  1.00  0.00    +0.102 A 
ENDROOT
BRANCH   1   7
ATOM      7  O   UNL     1      52.586  11.147  22.881  1.00  0.00    -0.426 OA
BRANCH   7   8
ATOM      8  C   UNL     1      53.175  12.358  22.493  1.00  0.00    +0.308 C 
ATOM      9  O   UNL     1      53.341  12.758  21.350  1.00  0.00    -0.252 OA
ATOM     10  C   UNL     1      53.546  13.141  23.719  1.00  0.00    +0.139 C 
ENDBRANCH   7   8
ENDBRANCH   1   7
BRANCH   6  11
ATOM     11  C   UNL     1      52.377   9.064  20.845  1.00  0.00    +0.339 C 
ATOM     12  O   UNL     1      52.519   7.854  20.921  1.00  0.00    -0.246 OA
BRANCH  11  13
ATOM     13  O   UNL     1      53.227   9.852  20.154  1.00  0.00    -0.478 OA
ATOM     14  H   UNL     1      52.963  10.792  20.130  1.00  0.00    +0.297 HD
ENDBRANCH  11  13
ENDBRANCH   6  11
TORSDOF 4
ENDMDL
MODEL 9
REMARK minimizedAffinity -3.81442475
REMARK minimizedRMSD -1
REMARK SMILES CC(=O)Oc1ccccc1C(=O)O
REMARK SMILES IDX 5 1 6 2 7 3 8 4 9 5 10 6 4 7 2 8 3 9 1 10 11 11 12 12 13 13
REMARK H PARENT 13 14
ROOT
ATOM      1  C   UNL     1      49.303   8.615  14.795  1.00  0.00    +0.145 A 
ATOM      2  C   UNL     1      48.127   8.570  15.549  1.00  0.00    +0.048 A 
ATOM      3  C   UNL     1      48.096   9.132  16.827  1.00  0.00    +0.004 A 
ATOM      4  C   UNL     1      49.243   9.709  17.366  1.00  0.00    +0.001 A 
ATOM      5  C   UNL     1      50.429   9.720  16.633  1.00  0.00    +0.019 A 
ATOM      6  C   UNL     1      50.474   9.163  15.345  1.00  0.00    +0.102 A 
ENDROOT
BRANCH   1   7
ATOM      7  O   UNL     1      49.357   8.064  13.492  1.00  0.00    -0.426 OA
BRANCH   7   8
ATOM      8  C   UNL     1      49.118   8.856  12.361  1.00  0.00    +0.308 C 
ATOM      9  O   UNL     1      49.935   9.535  11.757  1.00  0.00    -0.252 OA
ATOM     10  C   UNL     1      47.680   8.715  11.954  1.00  0.00    +0.139 C 
ENDBRANCH   7   8
ENDBRANCH   1   7
BRANCH   6  11
ATOM     11  C   UNL     1      51.783   9.212  14.642  1.00  0.00    +0.339 C 
ATOM     12  O   UNL     1      52.324   8.219  14.185  1.00  0.00    -0.246 OA
BRANCH  11  13
ATOM     13  O   UNL     1      52.285  10.454  14.478  1.00  0.00    -0.478 OA
ATOM     14  H   UNL     1      51.722  11.160  14.847  1.00  0.00    +0.297 HD
ENDBRANCH  11  13
ENDBRANCH   6  11
TORSDOF 4
ENDMDL
