MODEL 1
REMARK minimizedAffinity -3.68365502
REMARK minimizedRMSD -1
REMARK SMILES O=C(O)CN(CCN(CC(=O)O)CC(=O)O)CC(=O)O
REMARK SMILES IDX 6 1 5 2 4 3 2 4 1 5 3 6 17 8 18 9 19 10 20 11 7 13 8 14 9 15
REMARK SMILES IDX 10 16 11 17 12 18 13 20 14 21 15 22 16 23
REMARK H PARENT 3 7 20 12 12 19 16 24
ROOT
ATOM      1  C   UNL     1      51.119   6.147  12.394  1.00  0.00    +0.101 C 
ENDROOT
BRANCH   1   2
ATOM      2  N   UNL     1      51.062   7.564  12.856  1.00  0.00    -0.281 NA
BRANCH   2   3
ATOM      3  C   UNL     1      49.624   7.969  12.845  1.00  0.00    +0.208 C 
BRANCH   3   4
ATOM      4  C   UNL     1      49.342   9.007  11.771  1.00  0.00    +0.317 C 
ATOM      5  O   UNL     1      48.222   9.251  11.343  1.00  0.00    -0.251 OA
BRANCH   4   6
ATOM      6  O   UNL     1      50.441   9.704  11.410  1.00  0.00    -0.480 OA
ATOM      7  H   UNL     1      51.206   9.422  11.961  1.00  0.00    +0.296 HD
ENDBRANCH   4   6
ENDBRANCH   3   4
ENDBRANCH   2   3
BRANCH   2   8
ATOM      8  C   UNL     1      51.711   7.762  14.183  1.00  0.00    +0.208 C 
BRANCH   8   9
ATOM      9  C   UNL     1      51.670   9.192  14.707  1.00  0.00    +0.317 C 
ATOM     10  O   UNL     1      51.139   9.503  15.765  1.00  0.00    -0.251 OA
BRANCH   9  11
ATOM     11  O   UNL     1      52.226  10.108  13.884  1.00  0.00    -0.480 OA
ATOM     12  H   UNL     1      52.625   9.775  13.052  1.00  0.00    +0.296 HD
ENDBRANCH   9  11
ENDBRANCH   8   9
ENDBRANCH   2   8
ENDBRANCH   1   2
BRANCH   1  13
ATOM     13  C   UNL     1      51.706   5.860  10.984  1.00  0.00    +0.101 C 
BRANCH  13  14
ATOM     14  N   UNL     1      51.814   7.059  10.106  1.00  0.00    -0.281 NA
BRANCH  14  15
ATOM     15  C   UNL     1      53.191   7.301   9.591  1.00  0.00    +0.208 C 
BRANCH  15  16
ATOM     16  C   UNL     1      53.999   8.333  10.379  1.00  0.00    +0.317 C 
ATOM     17  O   UNL     1      55.189   8.549  10.195  1.00  0.00    -0.251 OA
BRANCH  16  18
ATOM     18  O   UNL     1      53.283   9.009  11.303  1.00  0.00    -0.480 OA
ATOM     19  H   UNL     1      52.317   8.840  11.308  1.00  0.00    +0.296 HD
ENDBRANCH  16  18
ENDBRANCH  15  16
ENDBRANCH  14  15
BRANCH  14  20
ATOM     20  C   UNL     1      50.824   6.953   9.006  1.00  0.00    +0.208 C 
BRANCH  20  21
ATOM     21  C   UNL     1      50.958   8.134   8.052  1.00  0.00    +0.317 C 
ATOM     22  O   UNL     1      51.426   8.052   6.926  1.00  0.00    -0.251 OA
BRANCH  21  23
ATOM     23  O   UNL     1      50.643   9.318   8.630  1.00  0.00    -0.480 OA
ATOM     24  H   UNL     1      50.439   9.196   9.583  1.00  0.00    +0.296 HD
ENDBRANCH  21  23
ENDBRANCH  20  21
ENDBRANCH  14  20
ENDBRANCH  13  14
ENDBRANCH   1  13
TORSDOF 15
ENDMDL
MODEL 2
REMARK minimizedAffinity -3.66976142
REMARK minimizedRMSD -1
REMARK SMILES O=C(O)CN(CCN(CC(=O)O)CC(=O)O)CC(=O)O
REMARK SMILES IDX 6 1 5 2 4 3 2 4 1 5 3 6 17 8 18 9 19 10 20 11 7 13 8 14 9 15
REMARK SMILES IDX 10 16 11 17 12 18 13 20 14 21 15 22 16 23
REMARK H PARENT 3 7 20 12 12 19 16 24
ROOT
ATOM      1  C   UNL     1      62.711   8.191   8.191  1.00  0.00    +0.101 C 
ENDROOT
BRANCH   1   2
ATOM      2  N   UNL     1      62.989   9.458   8.929  1.00  0.00    -0.281 NA
BRANCH   2   3
ATOM      3  C   UNL     1      63.807   9.096  10.124  1.00  0.00    +0.208 C 
BRANCH   3   4
ATOM      4  C   UNL     1      63.274   9.751  11.388  1.00  0.00    +0.317 C 
ATOM      5  O   UNL     1      63.963   9.988  12.372  1.00  0.00    -0.251 OA
BRANCH   4   6
ATOM      6  O   UNL     1      61.984  10.138  11.278  1.00  0.00    -0.480 OA
ATOM      7  H   UNL     1      61.662   9.953  10.366  1.00  0.00    +0.296 HD
ENDBRANCH   4   6
ENDBRANCH   3   4
ENDBRANCH   2   3
BRANCH   2   8
ATOM      8  C   UNL     1      63.637  10.490   8.071  1.00  0.00    +0.208 C 
BRANCH   8   9
ATOM      9  C   UNL     1      62.850  11.787   7.930  1.00  0.00    +0.317 C 
ATOM     10  O   UNL     1      63.293  12.782   7.369  1.00  0.00    -0.251 OA
BRANCH   9  11
ATOM     11  O   UNL     1      61.634  11.774   8.518  1.00  0.00    -0.480 OA
ATOM     12  H   UNL     1      61.358  10.938   8.950  1.00  0.00    +0.296 HD
ENDBRANCH   9  11
ENDBRANCH   8   9
ENDBRANCH   2   8
ENDBRANCH   1   2
BRANCH   1  13
ATOM     13  C   UNL     1      61.855   8.271   6.896  1.00  0.00    +0.101 C 
BRANCH  13  14
ATOM     14  N   UNL     1      60.623   9.099   7.023  1.00  0.00    -0.281 NA
BRANCH  14  15
ATOM     15  C   UNL     1      60.172   9.701   5.737  1.00  0.00    +0.208 C 
BRANCH  15  16
ATOM     16  C   UNL     1      59.039  10.720   5.867  1.00  0.00    +0.317 C 
ATOM     17  O   UNL     1      57.929  10.569   5.376  1.00  0.00    -0.251 OA
BRANCH  16  18
ATOM     18  O   UNL     1      59.361  11.815   6.589  1.00  0.00    -0.480 OA
ATOM     19  H   UNL     1      60.238  11.801   7.027  1.00  0.00    +0.296 HD
ENDBRANCH  16  18
ENDBRANCH  15  16
ENDBRANCH  14  15
BRANCH  14  20
ATOM     20  C   UNL     1      59.552   8.292   7.660  1.00  0.00    +0.208 C 
BRANCH  20  21
ATOM     21  C   UNL     1      59.010   9.003   8.893  1.00  0.00    +0.317 C 
ATOM     22  O   UNL     1      57.840   8.962   9.245  1.00  0.00    -0.251 OA
BRANCH  21  23
ATOM     23  O   UNL     1      59.923   9.811   9.482  1.00  0.00    -0.480 OA
ATOM     24  H   UNL     1      60.757   9.829   8.963  1.00  0.00    +0.296 HD
ENDBRANCH  21  23
ENDBRANCH  20  21
ENDBRANCH  14  20
ENDBRANCH  13  14
ENDBRANCH   1  13
TORSDOF 15
ENDMDL
MODEL 3
REMARK minimizedAffinity -3.55590415
REMARK minimizedRMSD -1
REMARK SMILES O=C(O)CN(CCN(CC(=O)O)CC(=O)O)CC(=O)O
REMARK SMILES IDX 6 1 5 2 4 3 2 4 1 5 3 6 17 8 18 9 19 10 20 11 7 13 8 14 9 15
REMARK SMILES IDX 10 16 11 17 12 18 13 20 14 21 15 22 16 23
REMARK H PARENT 3 7 20 12 12 19 16 24
ROOT
ATOM      1  C   UNL     1      49.180   7.047  13.659  1.00  0.00    +0.101 C 
ENDROOT
BRANCH   1   2
ATOM      2  N   UNL     1      49.426   8.157  14.625  1.00  0.00    -0.281 NA
BRANCH   2   3
ATOM      3  C   UNL     1      48.414   8.020  15.714  1.00  0.00    +0.208 C 
BRANCH   3   4
ATOM      4  C   UNL     1      47.836   9.367  16.115  1.00  0.00    +0.317 C 
ATOM      5  O   UNL     1      46.798   9.824  15.654  1.00  0.00    -0.251 OA
BRANCH   4   6
ATOM      6  O   UNL     1      48.531   9.965  17.108  1.00  0.00    -0.480 OA
ATOM      7  H   UNL     1      49.257   9.371  17.404  1.00  0.00    +0.296 HD
ENDBRANCH   4   6
ENDBRANCH   3   4
ENDBRANCH   2   3
BRANCH   2   8
ATOM      8  C   UNL     1      50.827   8.175  15.132  1.00  0.00    +0.208 C 
BRANCH   8   9
ATOM      9  C   UNL     1      51.514   9.533  15.058  1.00  0.00    +0.317 C 
ATOM     10  O   UNL     1      51.393  10.394  15.921  1.00  0.00    -0.251 OA
BRANCH   9  11
ATOM     11  O   UNL     1      52.236   9.738  13.934  1.00  0.00    -0.480 OA
ATOM     12  H   UNL     1      52.276   8.999  13.291  1.00  0.00    +0.296 HD
ENDBRANCH   9  11
ENDBRANCH   8   9
ENDBRANCH   2   8
ENDBRANCH   1   2
BRANCH   1  13
ATOM     13  C   UNL     1      50.400   6.449  12.904  1.00  0.00    +0.101 C 
BRANCH  13  14
ATOM     14  N   UNL     1      50.956   7.329  11.838  1.00  0.00    -0.281 NA
BRANCH  14  15
ATOM     15  C   UNL     1      52.140   6.750  11.142  1.00  0.00    +0.208 C 
BRANCH  15  16
ATOM     16  C   UNL     1      53.417   7.584  11.248  1.00  0.00    +0.317 C 
ATOM     17  O   UNL     1      54.543   7.106  11.243  1.00  0.00    -0.251 OA
BRANCH  16  18
ATOM     18  O   UNL     1      53.204   8.914  11.338  1.00  0.00    -0.480 OA
ATOM     19  H   UNL     1      52.275   9.211  11.231  1.00  0.00    +0.296 HD
ENDBRANCH  16  18
ENDBRANCH  15  16
ENDBRANCH  14  15
BRANCH  14  20
ATOM     20  C   UNL     1      49.876   7.686  10.884  1.00  0.00    +0.208 C 
BRANCH  20  21
ATOM     21  C   UNL     1      49.779   9.199  10.731  1.00  0.00    +0.317 C 
ATOM     22  O   UNL     1      49.346   9.758   9.734  1.00  0.00    -0.251 OA
BRANCH  21  23
ATOM     23  O   UNL     1      50.359   9.872  11.753  1.00  0.00    -0.480 OA
ATOM     24  H   UNL     1      50.788   9.250  12.381  1.00  0.00    +0.296 HD
ENDBRANCH  21  23
ENDBRANCH  20  21
ENDBRANCH  14  20
ENDBRANCH  13  14
ENDBRANCH   1  13
TORSDOF 15
ENDMDL
MODEL 4
REMARK minimizedAffinity -3.53563142
REMARK minimizedRMSD -1
REMARK SMILES O=C(O)CN(CCN(CC(=O)O)CC(=O)O)CC(=O)O
REMARK SMILES IDX 6 1 5 2 4 3 2 4 1 5 3 6 17 8 18 9 19 10 20 11 7 13 8 14 9 15
REMARK SMILES IDX 10 16 11 17 12 18 13 20 14 21 15 22 16 23
REMARK H PARENT 3 7 20 12 12 19 16 24
ROOT
ATOM      1  C   UNL     1      51.068   6.041  12.701  1.00  0.00    +0.101 C 
ENDROOT
BRANCH   1   2
ATOM      2  N   UNL     1      52.046   7.150  12.897  1.00  0.00    -0.281 NA
BRANCH   2   3
ATOM      3  C   UNL     1      52.031   7.492  14.351  1.00  0.00    +0.208 C 
BRANCH   3   4
ATOM      4  C   UNL     1      51.641   8.943  14.581  1.00  0.00    +0.317 C 
ATOM      5  O   UNL     1      50.854   9.304  15.447  1.00  0.00    -0.251 OA
BRANCH   4   6
ATOM      6  O   UNL     1      52.327   9.805  13.799  1.00  0.00    -0.480 OA
ATOM      7  H   UNL     1      52.986   9.308  13.263  1.00  0.00    +0.296 HD
ENDBRANCH   4   6
ENDBRANCH   3   4
ENDBRANCH   2   3
BRANCH   2   8
ATOM      8  C   UNL     1      53.406   6.810  12.394  1.00  0.00    +0.208 C 
BRANCH   8   9
ATOM      9  C   UNL     1      53.858   7.617  11.183  1.00  0.00    +0.317 C 
ATOM     10  O   UNL     1      54.606   7.173  10.321  1.00  0.00    -0.251 OA
BRANCH   9  11
ATOM     11  O   UNL     1      53.406   8.891  11.156  1.00  0.00    -0.480 OA
ATOM     12  H   UNL     1      52.816   9.168  11.887  1.00  0.00    +0.296 HD
ENDBRANCH   9  11
ENDBRANCH   8   9
ENDBRANCH   2   8
ENDBRANCH   1   2
BRANCH   1  13
ATOM     13  C   UNL     1      50.464   5.840  11.283  1.00  0.00    +0.101 C 
BRANCH  13  14
ATOM     14  N   UNL     1      50.374   7.085  10.470  1.00  0.00    -0.281 NA
BRANCH  14  15
ATOM     15  C   UNL     1      50.491   6.852   9.003  1.00  0.00    +0.208 C 
BRANCH  15  16
ATOM     16  C   UNL     1      51.684   7.538   8.338  1.00  0.00    +0.317 C 
ATOM     17  O   UNL     1      52.481   6.961   7.610  1.00  0.00    -0.251 OA
BRANCH  16  18
ATOM     18  O   UNL     1      51.787   8.857   8.609  1.00  0.00    -0.480 OA
ATOM     19  H   UNL     1      51.046   9.251   9.117  1.00  0.00    +0.296 HD
ENDBRANCH  16  18
ENDBRANCH  15  16
ENDBRANCH  14  15
BRANCH  14  20
ATOM     20  C   UNL     1      49.123   7.807  10.816  1.00  0.00    +0.208 C 
BRANCH  20  21
ATOM     21  C   UNL     1      49.387   9.303  10.936  1.00  0.00    +0.317 C 
ATOM     22  O   UNL     1      48.629  10.165  10.517  1.00  0.00    -0.251 OA
BRANCH  21  23
ATOM     23  O   UNL     1      50.619   9.585  11.423  1.00  0.00    -0.480 OA
ATOM     24  H   UNL     1      51.138   8.761  11.556  1.00  0.00    +0.296 HD
ENDBRANCH  21  23
ENDBRANCH  20  21
ENDBRANCH  14  20
ENDBRANCH  13  14
ENDBRANCH   1  13
TORSDOF 15
ENDMDL
MODEL 5
REMARK minimizedAffinity -3.45390892
REMARK minimizedRMSD -1
REMARK SMILES O=C(O)CN(CCN(CC(=O)O)CC(=O)O)CC(=O)O
REMARK SMILES IDX 6 1 5 2 4 3 2 4 1 5 3 6 17 8 18 9 19 10 20 11 7 13 8 14 9 15
REMARK SMILES IDX 10 16 11 17 12 18 13 20 14 21 15 22 16 23
REMARK H PARENT 3 7 20 12 12 19 16 24
ROOT
ATOM      1  C   UNL     1      50.911   5.801  11.614  1.00  0.00    +0.101 C 
ENDROOT
BRANCH   1   2
ATOM      2  N   UNL     1      51.727   6.576  10.635  1.00  0.00    -0.281 NA
BRANCH   2   3
ATOM      3  C   UNL     1      53.141   6.123  10.789  1.00  0.00    +0.208 C 
BRANCH   3   4
ATOM      4  C   UNL     1      54.059   7.272  11.174  1.00  0.00    +0.317 C 
ATOM      5  O   UNL     1      55.281   7.208  11.128  1.00  0.00    -0.251 OA
BRANCH   4   6
ATOM      6  O   UNL     1      53.388   8.405  11.476  1.00  0.00    -0.480 OA
ATOM      7  H   UNL     1      52.424   8.263  11.337  1.00  0.00    +0.296 HD
ENDBRANCH   4   6
ENDBRANCH   3   4
ENDBRANCH   2   3
BRANCH   2   8
ATOM      8  C   UNL     1      51.223   6.444   9.239  1.00  0.00    +0.208 C 
BRANCH   8   9
ATOM      9  C   UNL     1      51.768   7.481   8.263  1.00  0.00    +0.317 C 
ATOM     10  O   UNL     1      52.130   7.206   7.126  1.00  0.00    -0.251 OA
BRANCH   9  11
ATOM     11  O   UNL     1      51.867   8.730   8.769  1.00  0.00    -0.480 OA
ATOM     12  H   UNL     1      51.560   8.863   9.690  1.00  0.00    +0.296 HD
ENDBRANCH   9  11
ENDBRANCH   8   9
ENDBRANCH   2   8
ENDBRANCH   1   2
BRANCH   1  13
ATOM     13  C   UNL     1      50.916   6.264  13.098  1.00  0.00    +0.101 C 
BRANCH  13  14
ATOM     14  N   UNL     1      50.761   7.734  13.286  1.00  0.00    -0.281 NA
BRANCH  14  15
ATOM     15  C   UNL     1      49.435   8.255  12.849  1.00  0.00    +0.208 C 
BRANCH  15  16
ATOM     16  C   UNL     1      49.477   9.172  11.625  1.00  0.00    +0.317 C 
ATOM     17  O   UNL     1      48.481   9.644  11.096  1.00  0.00    -0.251 OA
BRANCH  16  18
ATOM     18  O   UNL     1      50.722   9.434  11.173  1.00  0.00    -0.480 OA
ATOM     19  H   UNL     1      51.461   9.095  11.723  1.00  0.00    +0.296 HD
ENDBRANCH  16  18
ENDBRANCH  15  16
ENDBRANCH  14  15
BRANCH  14  20
ATOM     20  C   UNL     1      51.052   8.082  14.699  1.00  0.00    +0.208 C 
BRANCH  20  21
ATOM     21  C   UNL     1      51.654   9.479  14.790  1.00  0.00    +0.317 C 
ATOM     22  O   UNL     1      51.450  10.250  15.717  1.00  0.00    -0.251 OA
BRANCH  21  23
ATOM     23  O   UNL     1      52.321   9.842  13.669  1.00  0.00    -0.480 OA
ATOM     24  H   UNL     1      52.243   9.148  12.978  1.00  0.00    +0.296 HD
ENDBRANCH  21  23
ENDBRANCH  20  21
ENDBRANCH  14  20
ENDBRANCH  13  14
ENDBRANCH   1  13
TORSDOF 15
ENDMDL
MODEL 6
REMARK minimizedAffinity -3.43459511
REMARK minimizedRMSD -1
REMARK SMILES O=C(O)CN(CCN(CC(=O)O)CC(=O)O)CC(=O)O
REMARK SMILES IDX 6 1 5 2 4 3 2 4 1 5 3 6 17 8 18 9 19 10 20 11 7 13 8 14 9 15
REMARK SMILES IDX 10 16 11 17 12 18 13 20 14 21 15 22 16 23
REMARK H PARENT 3 7 20 12 12 19 16 24
ROOT
ATOM      1  C   UNL     1      50.664   6.304  13.099  1.00  0.00    +0.101 C 
ENDROOT
BRANCH   1   2
ATOM      2  N   UNL     1      51.766   7.310  13.087  1.00  0.00    -0.281 NA
BRANCH   2   3
ATOM      3  C   UNL     1      52.018   7.699  14.506  1.00  0.00    +0.208 C 
BRANCH   3   4
ATOM      4  C   UNL     1      51.681   9.160  14.755  1.00  0.00    +0.317 C 
ATOM      5  O   UNL     1      50.984   9.546  15.685  1.00  0.00    -0.251 OA
BRANCH   4   6
ATOM      6  O   UNL     1      52.311   9.999  13.905  1.00  0.00    -0.480 OA
ATOM      7  H   UNL     1      52.907   9.484  13.316  1.00  0.00    +0.296 HD
ENDBRANCH   4   6
ENDBRANCH   3   4
ENDBRANCH   2   3
BRANCH   2   8
ATOM      8  C   UNL     1      52.988   6.812  12.395  1.00  0.00    +0.208 C 
BRANCH   8   9
ATOM      9  C   UNL     1      53.409   7.627  11.178  1.00  0.00    +0.317 C 
ATOM     10  O   UNL     1      53.936   7.133  10.189  1.00  0.00    -0.251 OA
BRANCH   9  11
ATOM     11  O   UNL     1      53.198   8.957  11.292  1.00  0.00    -0.480 OA
ATOM     12  H   UNL     1      52.775   9.270  12.119  1.00  0.00    +0.296 HD
ENDBRANCH   9  11
ENDBRANCH   8   9
ENDBRANCH   2   8
ENDBRANCH   1   2
BRANCH   1  13
ATOM     13  C   UNL     1      49.334   6.666  12.380  1.00  0.00    +0.101 C 
BRANCH  13  14
ATOM     14  N   UNL     1      48.715   7.942  12.837  1.00  0.00    -0.281 NA
BRANCH  14  15
ATOM     15  C   UNL     1      48.294   8.835  11.721  1.00  0.00    +0.208 C 
BRANCH  15  16
ATOM     16  C   UNL     1      49.443   9.419  10.897  1.00  0.00    +0.317 C 
ATOM     17  O   UNL     1      49.424   9.516   9.678  1.00  0.00    -0.251 OA
BRANCH  16  18
ATOM     18  O   UNL     1      50.495   9.836  11.633  1.00  0.00    -0.480 OA
ATOM     19  H   UNL     1      50.377   9.812  12.607  1.00  0.00    +0.296 HD
ENDBRANCH  16  18
ENDBRANCH  15  16
ENDBRANCH  14  15
BRANCH  14  20
ATOM     20  C   UNL     1      47.589   7.640  13.756  1.00  0.00    +0.208 C 
BRANCH  20  21
ATOM     21  C   UNL     1      47.822   8.289  15.115  1.00  0.00    +0.317 C 
ATOM     22  O   UNL     1      47.370   9.378  15.437  1.00  0.00    -0.251 OA
BRANCH  21  23
ATOM     23  O   UNL     1      48.705   7.607  15.882  1.00  0.00    -0.480 OA
ATOM     24  H   UNL     1      49.076   6.843  15.390  1.00  0.00    +0.296 HD
ENDBRANCH  21  23
ENDBRANCH  20  21
ENDBRANCH  14  20
ENDBRANCH  13  14
ENDBRANCH   1  13
TORSDOF 15
ENDMDL
MODEL 7
REMARK minimizedAffinity -3.31604505
REMARK minimizedRMSD -1
REMARK SMILES O=C(O)CN(CCN(CC(=O)O)CC(=O)O)CC(=O)O
REMARK SMILES IDX 6 1 5 2 4 3 2 4 1 5 3 6 17 8 18 9 19 10 20 11 7 13 8 14 9 15
REMARK SMILES IDX 10 16 11 17 12 18 13 20 14 21 15 22 16 23
REMARK H PARENT 3 7 20 12 12 19 16 24
ROOT
ATOM      1  C   UNL     1      60.960   9.034   5.573  1.00  0.00    +0.101 C 
ENDROOT
BRANCH   1   2
ATOM      2  N   UNL     1      59.850   8.377   6.322  1.00  0.00    -0.281 NA
BRANCH   2   3
ATOM      3  C   UNL     1      60.478   7.553   7.398  1.00  0.00    +0.208 C 
BRANCH   3   4
ATOM      4  C   UNL     1      59.504   7.278   8.533  1.00  0.00    +0.317 C 
ATOM      5  O   UNL     1      58.600   6.455   8.466  1.00  0.00    -0.251 OA
BRANCH   4   6
ATOM      6  O   UNL     1      59.801   7.961   9.660  1.00  0.00    -0.480 OA
ATOM      7  H   UNL     1      60.631   8.472   9.526  1.00  0.00    +0.296 HD
ENDBRANCH   4   6
ENDBRANCH   3   4
ENDBRANCH   2   3
BRANCH   2   8
ATOM      8  C   UNL     1      58.853   9.354   6.844  1.00  0.00    +0.208 C 
BRANCH   8   9
ATOM      9  C   UNL     1      58.466  10.455   5.865  1.00  0.00    +0.317 C 
ATOM     10  O   UNL     1      57.755  10.264   4.887  1.00  0.00    -0.251 OA
BRANCH   9  11
ATOM     11  O   UNL     1      59.012  11.662   6.133  1.00  0.00    -0.480 OA
ATOM     12  H   UNL     1      59.574  11.728   6.933  1.00  0.00    +0.296 HD
ENDBRANCH   9  11
ENDBRANCH   8   9
ENDBRANCH   2   8
ENDBRANCH   1   2
BRANCH   1  13
ATOM     13  C   UNL     1      62.215   9.485   6.370  1.00  0.00    +0.101 C 
BRANCH  13  14
ATOM     14  N   UNL     1      62.122  10.859   6.939  1.00  0.00    -0.281 NA
BRANCH  14  15
ATOM     15  C   UNL     1      62.147  10.892   8.429  1.00  0.00    +0.208 C 
BRANCH  15  16
ATOM     16  C   UNL     1      60.842  11.350   9.082  1.00  0.00    +0.317 C 
ATOM     17  O   UNL     1      60.105  12.201   8.605  1.00  0.00    -0.251 OA
BRANCH  16  18
ATOM     18  O   UNL     1      60.555  10.722  10.243  1.00  0.00    -0.480 OA
ATOM     19  H   UNL     1      61.150   9.984  10.493  1.00  0.00    +0.296 HD
ENDBRANCH  16  18
ENDBRANCH  15  16
ENDBRANCH  14  15
BRANCH  14  20
ATOM     20  C   UNL     1      63.189  11.708   6.351  1.00  0.00    +0.208 C 
BRANCH  20  21
ATOM     21  C   UNL     1      62.594  12.984   5.769  1.00  0.00    +0.317 C 
ATOM     22  O   UNL     1      63.107  14.088   5.880  1.00  0.00    -0.251 OA
BRANCH  21  23
ATOM     23  O   UNL     1      61.360  12.801   5.243  1.00  0.00    -0.480 OA
ATOM     24  H   UNL     1      61.054  11.879   5.387  1.00  0.00    +0.296 HD
ENDBRANCH  21  23
ENDBRANCH  20  21
ENDBRANCH  14  20
ENDBRANCH  13  14
ENDBRANCH   1  13
TORSDOF 15
ENDMDL
MODEL 8
REMARK minimizedAffinity -3.27911186
REMARK minimizedRMSD -1
REMARK SMILES O=C(O)CN(CCN(CC(=O)O)CC(=O)O)CC(=O)O
REMARK SMILES IDX 6 1 5 2 4 3 2 4 1 5 3 6 17 8 18 9 19 10 20 11 7 13 8 14 9 15
REMARK SMILES IDX 10 16 11 17 12 18 13 20 14 21 15 22 16 23
REMARK H PARENT 3 7 20 12 12 19 16 24
ROOT
ATOM      1  C   UNL     1      49.070   9.152  11.753  1.00  0.00    +0.101 C 
ENDROOT
BRANCH   1   2
ATOM      2  N   UNL     1      49.987   8.943  10.595  1.00  0.00    -0.281 NA
BRANCH   2   3
ATOM      3  C   UNL     1      50.828   7.750  10.914  1.00  0.00    +0.208 C 
BRANCH   3   4
ATOM      4  C   UNL     1      52.295   8.122  11.063  1.00  0.00    +0.317 C 
ATOM      5  O   UNL     1      52.944   7.924  12.082  1.00  0.00    -0.251 OA
BRANCH   4   6
ATOM      6  O   UNL     1      52.836   8.600   9.921  1.00  0.00    -0.480 OA
ATOM      7  H   UNL     1      52.168   8.566   9.200  1.00  0.00    +0.296 HD
ENDBRANCH   4   6
ENDBRANCH   3   4
ENDBRANCH   2   3
BRANCH   2   8
ATOM      8  C   UNL     1      49.258   8.811   9.302  1.00  0.00    +0.208 C 
BRANCH   8   9
ATOM      9  C   UNL     1      49.704   9.782   8.216  1.00  0.00    +0.317 C 
ATOM     10  O   UNL     1      48.942  10.563   7.661  1.00  0.00    -0.251 OA
BRANCH   9  11
ATOM     11  O   UNL     1      51.007   9.682   7.874  1.00  0.00    -0.480 OA
ATOM     12  H   UNL     1      51.547   9.027   8.364  1.00  0.00    +0.296 HD
ENDBRANCH   9  11
ENDBRANCH   8   9
ENDBRANCH   2   8
ENDBRANCH   1   2
BRANCH   1  13
ATOM     13  C   UNL     1      49.105   8.115  12.911  1.00  0.00    +0.101 C 
BRANCH  13  14
ATOM     14  N   UNL     1      49.375   8.702  14.254  1.00  0.00    -0.281 NA
BRANCH  14  15
ATOM     15  C   UNL     1      48.381   8.304  15.290  1.00  0.00    +0.208 C 
BRANCH  15  16
ATOM     16  C   UNL     1      47.683   9.470  15.991  1.00  0.00    +0.317 C 
ATOM     17  O   UNL     1      46.589   9.905  15.658  1.00  0.00    -0.251 OA
BRANCH  16  18
ATOM     18  O   UNL     1      48.373   9.984  17.031  1.00  0.00    -0.480 OA
ATOM     19  H   UNL     1      49.190   9.504  17.286  1.00  0.00    +0.296 HD
ENDBRANCH  16  18
ENDBRANCH  15  16
ENDBRANCH  14  15
BRANCH  14  20
ATOM     20  C   UNL     1      50.763   8.371  14.664  1.00  0.00    +0.208 C 
BRANCH  20  21
ATOM     21  C   UNL     1      51.479   9.616  15.174  1.00  0.00    +0.317 C 
ATOM     22  O   UNL     1      51.192  10.189  16.215  1.00  0.00    -0.251 OA
BRANCH  21  23
ATOM     23  O   UNL     1      52.369  10.115  14.284  1.00  0.00    -0.480 OA
ATOM     24  H   UNL     1      52.345   9.606  13.445  1.00  0.00    +0.296 HD
ENDBRANCH  21  23
ENDBRANCH  20  21
ENDBRANCH  14  20
ENDBRANCH  13  14
ENDBRANCH   1  13
TORSDOF 15
ENDMDL
MODEL 9
REMARK minimizedAffinity -3.12500525
REMARK minimizedRMSD -1
REMARK SMILES O=C(O)CN(CCN(CC(=O)O)CC(=O)O)CC(=O)O
REMARK SMILES IDX 6 1 5 2 4 3 2 4 1 5 3 6 17 8 18 9 19 10 20 11 7 13 8 14 9 15
REMARK SMILES IDX 10 16 11 17 12 18 13 20 14 21 15 22 16 23
REMARK H PARENT 3 7 20 12 12 19 16 24
ROOT
ATOM      1  C   UNL     1      52.958   6.167  13.273  1.00  0.00    +0.101 C 
ENDROOT
BRANCH   1   2
ATOM      2  N   UNL     1      53.659   5.861  11.992  1.00  0.00    -0.281 NA
BRANCH   2   3
ATOM      3  C   UNL     1      52.958   6.624  10.917  1.00  0.00    +0.208 C 
BRANCH   3   4
ATOM      4  C   UNL     1      53.584   7.992  10.700  1.00  0.00    +0.317 C 
ATOM      5  O   UNL     1      54.381   8.238   9.804  1.00  0.00    -0.251 OA
BRANCH   4   6
ATOM      6  O   UNL     1      53.095   8.934  11.535  1.00  0.00    -0.480 OA
ATOM      7  H   UNL     1      52.386   8.543  12.093  1.00  0.00    +0.296 HD
ENDBRANCH   4   6
ENDBRANCH   3   4
ENDBRANCH   2   3
BRANCH   2   8
ATOM      8  C   UNL     1      55.119   6.153  12.055  1.00  0.00    +0.208 C 
BRANCH   8   9
ATOM      9  C   UNL     1      56.021   4.938  11.879  1.00  0.00    +0.317 C 
ATOM     10  O   UNL     1      55.774   4.025  11.101  1.00  0.00    -0.251 OA
BRANCH   9  11
ATOM     11  O   UNL     1      57.103   4.919  12.690  1.00  0.00    -0.480 OA
ATOM     12  H   UNL     1      57.224   5.688  13.287  1.00  0.00    +0.296 HD
ENDBRANCH   9  11
ENDBRANCH   8   9
ENDBRANCH   2   8
ENDBRANCH   1   2
BRANCH   1  13
ATOM     13  C   UNL     1      51.418   6.373  13.233  1.00  0.00    +0.101 C 
BRANCH  13  14
ATOM     14  N   UNL     1      50.976   7.768  13.515  1.00  0.00    -0.281 NA
BRANCH  14  15
ATOM     15  C   UNL     1      49.559   8.034  13.139  1.00  0.00    +0.208 C 
BRANCH  15  16
ATOM     16  C   UNL     1      49.379   8.944  11.923  1.00  0.00    +0.317 C 
ATOM     17  O   UNL     1      48.395   8.919  11.197  1.00  0.00    -0.251 OA
BRANCH  16  18
ATOM     18  O   UNL     1      50.402   9.800  11.715  1.00  0.00    -0.480 OA
ATOM     19  H   UNL     1      51.097   9.817  12.407  1.00  0.00    +0.296 HD
ENDBRANCH  16  18
ENDBRANCH  15  16
ENDBRANCH  14  15
BRANCH  14  20
ATOM     20  C   UNL     1      51.237   8.086  14.942  1.00  0.00    +0.208 C 
BRANCH  20  21
ATOM     21  C   UNL     1      51.598   9.558  15.102  1.00  0.00    +0.317 C 
ATOM     22  O   UNL     1      51.236  10.250  16.043  1.00  0.00    -0.251 OA
BRANCH  21  23
ATOM     23  O   UNL     1      52.239  10.066  14.023  1.00  0.00    -0.480 OA
ATOM     24  H   UNL     1      52.301   9.395  13.308  1.00  0.00    +0.296 HD
ENDBRANCH  21  23
ENDBRANCH  20  21
ENDBRANCH  14  20
ENDBRANCH  13  14
ENDBRANCH   1  13
TORSDOF 15
ENDMDL
