MODEL 1
REMARK minimizedAffinity -4.29590797
REMARK minimizedRMSD -1
REMARK SMILES O=C(O)CN(CCOCCOCCN(CC(=O)O)CC(=O)O)CC(=O)O
REMARK SMILES IDX 9 1 8 2 7 3 6 4 5 5 4 6 2 7 1 8 3 9 23 11 24 12 25 13 26 14
REMARK SMILES IDX 10 16 11 17 12 18 13 19 14 20 15 21 16 22 17 23 18 24 19 26
REMARK SMILES IDX 20 27 21 28 22 29
REMARK H PARENT 3 10 26 15 18 25 22 30
ROOT
ATOM      1  C   UNL     1      55.662   7.650   9.389  1.00  0.00    +0.188 C 
ENDROOT
BRANCH   1   2
ATOM      2  O   UNL     1      56.364   6.808   8.457  1.00  0.00    -0.378 OA
BRANCH   2   3
ATOM      3  C   UNL     1      57.622   7.382   8.057  1.00  0.00    +0.175 C 
BRANCH   3   4
ATOM      4  C   UNL     1      57.595   8.929   8.178  1.00  0.00    +0.114 C 
BRANCH   4   5
ATOM      5  N   UNL     1      58.905   9.627   8.363  1.00  0.00    -0.280 NA
BRANCH   5   6
ATOM      6  C   UNL     1      59.857   8.638   8.988  1.00  0.00    +0.208 C 
BRANCH   6   7
ATOM      7  C   UNL     1      60.868   9.310   9.919  1.00  0.00    +0.317 C 
ATOM      8  O   UNL     1      62.005   8.918  10.112  1.00  0.00    -0.251 OA
BRANCH   7   9
ATOM      9  O   UNL     1      60.335  10.382  10.564  1.00  0.00    -0.480 OA
ATOM     10  H   UNL     1      59.414  10.502  10.246  1.00  0.00    +0.296 HD
ENDBRANCH   7   9
ENDBRANCH   6   7
ENDBRANCH   5   6
BRANCH   5  11
ATOM     11  C   UNL     1      59.476  10.159   7.089  1.00  0.00    +0.208 C 
BRANCH  11  12
ATOM     12  C   UNL     1      59.989  11.585   7.193  1.00  0.00    +0.317 C 
ATOM     13  O   UNL     1      60.594  12.170   6.307  1.00  0.00    -0.251 OA
BRANCH  12  14
ATOM     14  O   UNL     1      59.647  12.192   8.342  1.00  0.00    -0.480 OA
ATOM     15  H   UNL     1      59.199  11.575   8.971  1.00  0.00    +0.296 HD
ENDBRANCH  12  14
ENDBRANCH  11  12
ENDBRANCH   5  11
ENDBRANCH   4   5
ENDBRANCH   3   4
ENDBRANCH   2   3
ENDBRANCH   1   2
BRANCH   1  16
ATOM     16  C   UNL     1      55.355   6.859  10.668  1.00  0.00    +0.188 C 
BRANCH  16  17
ATOM     17  O   UNL     1      53.971   6.452  10.701  1.00  0.00    -0.378 OA
BRANCH  17  18
ATOM     18  C   UNL     1      53.283   7.100  11.794  1.00  0.00    +0.175 C 
BRANCH  18  19
ATOM     19  C   UNL     1      52.158   8.051  11.304  1.00  0.00    +0.114 C 
BRANCH  19  20
ATOM     20  N   UNL     1      51.396   8.722  12.393  1.00  0.00    -0.280 NA
BRANCH  20  21
ATOM     21  C   UNL     1      49.950   8.395  12.345  1.00  0.00    +0.208 C 
BRANCH  21  22
ATOM     22  C   UNL     1      49.142   9.132  11.279  1.00  0.00    +0.317 C 
ATOM     23  O   UNL     1      49.463  10.209  10.796  1.00  0.00    -0.251 OA
BRANCH  22  24
ATOM     24  O   UNL     1      47.985   8.507  10.944  1.00  0.00    -0.480 OA
ATOM     25  H   UNL     1      47.825   7.698  11.485  1.00  0.00    +0.296 HD
ENDBRANCH  22  24
ENDBRANCH  21  22
ENDBRANCH  20  21
BRANCH  20  26
ATOM     26  C   UNL     1      51.913   8.368  13.749  1.00  0.00    +0.208 C 
BRANCH  26  27
ATOM     27  C   UNL     1      51.537   9.445  14.763  1.00  0.00    +0.317 C 
ATOM     28  O   UNL     1      50.665   9.334  15.609  1.00  0.00    -0.251 OA
BRANCH  27  29
ATOM     29  O   UNL     1      52.263  10.582  14.592  1.00  0.00    -0.480 OA
ATOM     30  H   UNL     1      52.893  10.416  13.854  1.00  0.00    +0.296 HD
ENDBRANCH  27  29
ENDBRANCH  26  27
ENDBRANCH  20  26
ENDBRANCH  19  20
ENDBRANCH  18  19
ENDBRANCH  17  18
ENDBRANCH  16  17
ENDBRANCH   1  16
TORSDOF 21
ENDMDL
MODEL 2
REMARK minimizedAffinity -4.27975988
REMARK minimizedRMSD -1
REMARK SMILES O=C(O)CN(CCOCCOCCN(CC(=O)O)CC(=O)O)CC(=O)O
REMARK SMILES IDX 9 1 8 2 7 3 6 4 5 5 4 6 2 7 1 8 3 9 23 11 24 12 25 13 26 14
REMARK SMILES IDX 10 16 11 17 12 18 13 19 14 20 15 21 16 22 17 23 18 24 19 26
REMARK SMILES IDX 20 27 21 28 22 29
REMARK H PARENT 3 10 26 15 18 25 22 30
ROOT
ATOM      1  C   UNL     1      55.336   7.667   9.958  1.00  0.00    +0.188 C 
ENDROOT
BRANCH   1   2
ATOM      2  O   UNL     1      54.163   7.488  10.772  1.00  0.00    -0.378 OA
BRANCH   2   3
ATOM      3  C   UNL     1      54.451   6.747  11.973  1.00  0.00    +0.175 C 
BRANCH   3   4
ATOM      4  C   UNL     1      53.147   6.346  12.709  1.00  0.00    +0.114 C 
BRANCH   4   5
ATOM      5  N   UNL     1      52.153   7.429  12.988  1.00  0.00    -0.280 NA
BRANCH   5   6
ATOM      6  C   UNL     1      50.860   7.037  12.317  1.00  0.00    +0.208 C 
BRANCH   6   7
ATOM      7  C   UNL     1      50.218   8.202  11.563  1.00  0.00    +0.317 C 
ATOM      8  O   UNL     1      49.062   8.230  11.177  1.00  0.00    -0.251 OA
BRANCH   7   9
ATOM      9  O   UNL     1      51.105   9.202  11.314  1.00  0.00    -0.480 OA
ATOM     10  H   UNL     1      51.964   8.955  11.720  1.00  0.00    +0.296 HD
ENDBRANCH   7   9
ENDBRANCH   6   7
ENDBRANCH   5   6
BRANCH   5  11
ATOM     11  C   UNL     1      51.929   7.666  14.445  1.00  0.00    +0.208 C 
BRANCH  11  12
ATOM     12  C   UNL     1      51.649   9.116  14.799  1.00  0.00    +0.317 C 
ATOM     13  O   UNL     1      50.962   9.479  15.741  1.00  0.00    -0.251 OA
BRANCH  12  14
ATOM     14  O   UNL     1      52.300   9.990  14.014  1.00  0.00    -0.480 OA
ATOM     15  H   UNL     1      52.778   9.543  13.272  1.00  0.00    +0.296 HD
ENDBRANCH  12  14
ENDBRANCH  11  12
ENDBRANCH   5  11
ENDBRANCH   4   5
ENDBRANCH   3   4
ENDBRANCH   2   3
ENDBRANCH   1   2
BRANCH   1  16
ATOM     16  C   UNL     1      55.297   6.688   8.778  1.00  0.00    +0.188 C 
BRANCH  16  17
ATOM     17  O   UNL     1      55.979   7.236   7.631  1.00  0.00    -0.378 OA
BRANCH  17  18
ATOM     18  C   UNL     1      57.315   7.653   7.991  1.00  0.00    +0.175 C 
BRANCH  18  19
ATOM     19  C   UNL     1      57.738   8.968   7.282  1.00  0.00    +0.114 C 
BRANCH  19  20
ATOM     20  N   UNL     1      58.934   9.631   7.868  1.00  0.00    -0.280 NA
BRANCH  20  21
ATOM     21  C   UNL     1      59.687   8.726   8.770  1.00  0.00    +0.208 C 
BRANCH  21  22
ATOM     22  C   UNL     1      60.567   9.413   9.811  1.00  0.00    +0.317 C 
ATOM     23  O   UNL     1      61.678   9.020  10.139  1.00  0.00    -0.251 OA
BRANCH  22  24
ATOM     24  O   UNL     1      59.981  10.488  10.397  1.00  0.00    -0.480 OA
ATOM     25  H   UNL     1      59.053  10.622  10.091  1.00  0.00    +0.296 HD
ENDBRANCH  22  24
ENDBRANCH  21  22
ENDBRANCH  20  21
BRANCH  20  26
ATOM     26  C   UNL     1      59.871  10.139   6.823  1.00  0.00    +0.208 C 
BRANCH  26  27
ATOM     27  C   UNL     1      60.100  11.639   6.993  1.00  0.00    +0.317 C 
ATOM     28  O   UNL     1      59.762  12.291   7.966  1.00  0.00    -0.251 OA
BRANCH  27  29
ATOM     29  O   UNL     1      60.697  12.190   5.902  1.00  0.00    -0.480 OA
ATOM     30  H   UNL     1      60.867  11.460   5.264  1.00  0.00    +0.296 HD
ENDBRANCH  27  29
ENDBRANCH  26  27
ENDBRANCH  20  26
ENDBRANCH  19  20
ENDBRANCH  18  19
ENDBRANCH  17  18
ENDBRANCH  16  17
ENDBRANCH   1  16
TORSDOF 21
ENDMDL
MODEL 3
REMARK minimizedAffinity -4.26924181
REMARK minimizedRMSD -1
REMARK SMILES O=C(O)CN(CCOCCOCCN(CC(=O)O)CC(=O)O)CC(=O)O
REMARK SMILES IDX 9 1 8 2 7 3 6 4 5 5 4 6 2 7 1 8 3 9 23 11 24 12 25 13 26 14
REMARK SMILES IDX 10 16 11 17 12 18 13 19 14 20 15 21 16 22 17 23 18 24 19 26
REMARK SMILES IDX 20 27 21 28 22 29
REMARK H PARENT 3 10 26 15 18 25 22 30
ROOT
ATOM      1  C   UNL     1      57.258   8.480   9.211  1.00  0.00    +0.188 C 
ENDROOT
BRANCH   1   2
ATOM      2  O   UNL     1      57.210   8.598   7.778  1.00  0.00    -0.378 OA
BRANCH   2   3
ATOM      3  C   UNL     1      58.523   8.762   7.209  1.00  0.00    +0.175 C 
BRANCH   3   4
ATOM      4  C   UNL     1      58.760  10.228   6.762  1.00  0.00    +0.114 C 
BRANCH   4   5
ATOM      5  N   UNL     1      60.111  10.816   7.023  1.00  0.00    -0.280 NA
BRANCH   5   6
ATOM      6  C   UNL     1      60.511  11.588   5.791  1.00  0.00    +0.208 C 
BRANCH   6   7
ATOM      7  C   UNL     1      61.985  11.996   5.810  1.00  0.00    +0.317 C 
ATOM      8  O   UNL     1      62.908  11.258   6.108  1.00  0.00    -0.251 OA
BRANCH   7   9
ATOM      9  O   UNL     1      62.156  13.310   5.507  1.00  0.00    -0.480 OA
ATOM     10  H   UNL     1      61.275  13.694   5.303  1.00  0.00    +0.296 HD
ENDBRANCH   7   9
ENDBRANCH   6   7
ENDBRANCH   5   6
BRANCH   5  11
ATOM     11  C   UNL     1      60.148  11.703   8.224  1.00  0.00    +0.208 C 
BRANCH  11  12
ATOM     12  C   UNL     1      60.946  11.136   9.386  1.00  0.00    +0.317 C 
ATOM     13  O   UNL     1      62.159  11.217   9.498  1.00  0.00    -0.251 OA
BRANCH  12  14
ATOM     14  O   UNL     1      60.177  10.590  10.343  1.00  0.00    -0.480 OA
ATOM     15  H   UNL     1      59.223  10.562  10.085  1.00  0.00    +0.296 HD
ENDBRANCH  12  14
ENDBRANCH  11  12
ENDBRANCH   5  11
ENDBRANCH   4   5
ENDBRANCH   3   4
ENDBRANCH   2   3
ENDBRANCH   1   2
BRANCH   1  16
ATOM     16  C   UNL     1      55.967   7.819   9.716  1.00  0.00    +0.188 C 
BRANCH  16  17
ATOM     17  O   UNL     1      55.029   8.812  10.182  1.00  0.00    -0.378 OA
BRANCH  17  18
ATOM     18  C   UNL     1      53.739   8.209  10.426  1.00  0.00    +0.175 C 
BRANCH  18  19
ATOM     19  C   UNL     1      53.801   7.089  11.499  1.00  0.00    +0.114 C 
BRANCH  19  20
ATOM     20  N   UNL     1      52.958   7.336  12.701  1.00  0.00    -0.280 NA
BRANCH  20  21
ATOM     21  C   UNL     1      51.961   8.410  12.471  1.00  0.00    +0.208 C 
BRANCH  21  22
ATOM     22  C   UNL     1      51.492   9.154  13.719  1.00  0.00    +0.317 C 
ATOM     23  O   UNL     1      50.434   8.935  14.293  1.00  0.00    -0.251 OA
BRANCH  22  24
ATOM     24  O   UNL     1      52.338  10.138  14.116  1.00  0.00    -0.480 OA
ATOM     25  H   UNL     1      53.099  10.251  13.500  1.00  0.00    +0.296 HD
ENDBRANCH  22  24
ENDBRANCH  21  22
ENDBRANCH  20  21
BRANCH  20  26
ATOM     26  C   UNL     1      52.232   6.109  13.147  1.00  0.00    +0.208 C 
BRANCH  26  27
ATOM     27  C   UNL     1      52.566   5.790  14.602  1.00  0.00    +0.317 C 
ATOM     28  O   UNL     1      53.585   5.237  14.981  1.00  0.00    -0.251 OA
BRANCH  27  29
ATOM     29  O   UNL     1      51.566   6.158  15.447  1.00  0.00    -0.480 OA
ATOM     30  H   UNL     1      50.864   6.580  14.899  1.00  0.00    +0.296 HD
ENDBRANCH  27  29
ENDBRANCH  26  27
ENDBRANCH  20  26
ENDBRANCH  19  20
ENDBRANCH  18  19
ENDBRANCH  17  18
ENDBRANCH  16  17
ENDBRANCH   1  16
TORSDOF 21
ENDMDL
MODEL 4
REMARK minimizedAffinity -4.26445627
REMARK minimizedRMSD -1
REMARK SMILES O=C(O)CN(CCOCCOCCN(CC(=O)O)CC(=O)O)CC(=O)O
REMARK SMILES IDX 9 1 8 2 7 3 6 4 5 5 4 6 2 7 1 8 3 9 23 11 24 12 25 13 26 14
REMARK SMILES IDX 10 16 11 17 12 18 13 19 14 20 15 21 16 22 17 23 18 24 19 26
REMARK SMILES IDX 20 27 21 28 22 29
REMARK H PARENT 3 10 26 15 18 25 22 30
ROOT
ATOM      1  C   UNL     1      56.102   6.453   9.429  1.00  0.00    +0.188 C 
ENDROOT
BRANCH   1   2
ATOM      2  O   UNL     1      56.315   7.505   8.470  1.00  0.00    -0.378 OA
BRANCH   2   3
ATOM      3  C   UNL     1      57.100   8.580   9.020  1.00  0.00    +0.175 C 
BRANCH   3   4
ATOM      4  C   UNL     1      58.618   8.283   8.899  1.00  0.00    +0.114 C 
BRANCH   4   5
ATOM      5  N   UNL     1      59.539   9.455   8.768  1.00  0.00    -0.280 NA
BRANCH   5   6
ATOM      6  C   UNL     1      60.887   9.028   9.292  1.00  0.00    +0.208 C 
BRANCH   6   7
ATOM      7  C   UNL     1      61.382   9.924  10.428  1.00  0.00    +0.317 C 
ATOM      8  O   UNL     1      62.516   9.924  10.872  1.00  0.00    -0.251 OA
BRANCH   7   9
ATOM      9  O   UNL     1      60.388  10.700  10.938  1.00  0.00    -0.480 OA
ATOM     10  H   UNL     1      59.571  10.528  10.420  1.00  0.00    +0.296 HD
ENDBRANCH   7   9
ENDBRANCH   6   7
ENDBRANCH   5   6
BRANCH   5  11
ATOM     11  C   UNL     1      59.664   9.955   7.366  1.00  0.00    +0.208 C 
BRANCH  11  12
ATOM     12  C   UNL     1      59.821  11.462   7.261  1.00  0.00    +0.317 C 
ATOM     13  O   UNL     1      60.056  12.063   6.224  1.00  0.00    -0.251 OA
BRANCH  12  14
ATOM     14  O   UNL     1      59.599  12.103   8.421  1.00  0.00    -0.480 OA
ATOM     15  H   UNL     1      59.465  11.476   9.174  1.00  0.00    +0.296 HD
ENDBRANCH  12  14
ENDBRANCH  11  12
ENDBRANCH   5  11
ENDBRANCH   4   5
ENDBRANCH   3   4
ENDBRANCH   2   3
ENDBRANCH   1   2
BRANCH   1  16
ATOM     16  C   UNL     1      55.163   6.949  10.537  1.00  0.00    +0.188 C 
BRANCH  16  17
ATOM     17  O   UNL     1      53.795   6.592  10.250  1.00  0.00    -0.378 OA
BRANCH  17  18
ATOM     18  C   UNL     1      52.887   7.451  10.975  1.00  0.00    +0.175 C 
BRANCH  18  19
ATOM     19  C   UNL     1      52.002   6.666  11.980  1.00  0.00    +0.114 C 
BRANCH  19  20
ATOM     20  N   UNL     1      51.105   7.515  12.810  1.00  0.00    -0.280 NA
BRANCH  20  21
ATOM     21  C   UNL     1      51.676   8.863  13.049  1.00  0.00    +0.208 C 
BRANCH  21  22
ATOM     22  C   UNL     1      51.684   9.329  14.502  1.00  0.00    +0.317 C 
ATOM     23  O   UNL     1      51.164   8.715  15.424  1.00  0.00    -0.251 OA
BRANCH  22  24
ATOM     24  O   UNL     1      52.279  10.535  14.685  1.00  0.00    -0.480 OA
ATOM     25  H   UNL     1      52.567  10.944  13.835  1.00  0.00    +0.296 HD
ENDBRANCH  22  24
ENDBRANCH  21  22
ENDBRANCH  20  21
BRANCH  20  26
ATOM     26  C   UNL     1      49.752   7.679  12.198  1.00  0.00    +0.208 C 
BRANCH  26  27
ATOM     27  C   UNL     1      48.695   6.967  13.038  1.00  0.00    +0.317 C 
ATOM     28  O   UNL     1      47.681   6.453  12.596  1.00  0.00    -0.251 OA
BRANCH  27  29
ATOM     29  O   UNL     1      48.990   7.003  14.365  1.00  0.00    -0.480 OA
ATOM     30  H   UNL     1      49.853   7.467  14.458  1.00  0.00    +0.296 HD
ENDBRANCH  27  29
ENDBRANCH  26  27
ENDBRANCH  20  26
ENDBRANCH  19  20
ENDBRANCH  18  19
ENDBRANCH  17  18
ENDBRANCH  16  17
ENDBRANCH   1  16
TORSDOF 21
ENDMDL
MODEL 5
REMARK minimizedAffinity -4.11906528
REMARK minimizedRMSD -1
REMARK SMILES O=C(O)CN(CCOCCOCCN(CC(=O)O)CC(=O)O)CC(=O)O
REMARK SMILES IDX 9 1 8 2 7 3 6 4 5 5 4 6 2 7 1 8 3 9 23 11 24 12 25 13 26 14
REMARK SMILES IDX 10 16 11 17 12 18 13 19 14 20 15 21 16 22 17 23 18 24 19 26
REMARK SMILES IDX 20 27 21 28 22 29
REMARK H PARENT 3 10 26 15 18 25 22 30
ROOT
ATOM      1  C   UNL     1      50.374   5.289  12.983  1.00  0.00    +0.188 C 
ENDROOT
BRANCH   1   2
ATOM      2  O   UNL     1      49.707   6.159  12.050  1.00  0.00    -0.378 OA
BRANCH   2   3
ATOM      3  C   UNL     1      49.712   5.618  10.715  1.00  0.00    +0.175 C 
BRANCH   3   4
ATOM      4  C   UNL     1      50.883   6.199   9.880  1.00  0.00    +0.114 C 
BRANCH   4   5
ATOM      5  N   UNL     1      51.229   7.639  10.092  1.00  0.00    -0.280 NA
BRANCH   5   6
ATOM      6  C   UNL     1      52.560   7.884   9.424  1.00  0.00    +0.208 C 
BRANCH   6   7
ATOM      7  C   UNL     1      53.662   8.228  10.428  1.00  0.00    +0.317 C 
ATOM      8  O   UNL     1      54.834   7.918  10.309  1.00  0.00    -0.251 OA
BRANCH   7   9
ATOM      9  O   UNL     1      53.176   8.882  11.516  1.00  0.00    -0.480 OA
ATOM     10  H   UNL     1      52.212   9.019  11.385  1.00  0.00    +0.296 HD
ENDBRANCH   7   9
ENDBRANCH   6   7
ENDBRANCH   5   6
BRANCH   5  11
ATOM     11  C   UNL     1      50.201   8.580   9.555  1.00  0.00    +0.208 C 
BRANCH  11  12
ATOM     12  C   UNL     1      49.621   9.520  10.598  1.00  0.00    +0.317 C 
ATOM     13  O   UNL     1      48.512  10.026  10.534  1.00  0.00    -0.251 OA
BRANCH  12  14
ATOM     14  O   UNL     1      50.423   9.693  11.662  1.00  0.00    -0.480 OA
ATOM     15  H   UNL     1      51.301   9.254  11.544  1.00  0.00    +0.296 HD
ENDBRANCH  12  14
ENDBRANCH  11  12
ENDBRANCH   5  11
ENDBRANCH   4   5
ENDBRANCH   3   4
ENDBRANCH   2   3
ENDBRANCH   1   2
BRANCH   1  16
ATOM     16  C   UNL     1      51.443   6.080  13.749  1.00  0.00    +0.188 C 
BRANCH  16  17
ATOM     17  O   UNL     1      51.332   7.493  13.477  1.00  0.00    -0.378 OA
BRANCH  17  18
ATOM     18  C   UNL     1      51.560   8.256  14.682  1.00  0.00    +0.175 C 
BRANCH  18  19
ATOM     19  C   UNL     1      50.822   7.660  15.911  1.00  0.00    +0.114 C 
BRANCH  19  20
ATOM     20  N   UNL     1      49.489   8.263  16.186  1.00  0.00    -0.280 NA
BRANCH  20  21
ATOM     21  C   UNL     1      48.402   7.567  15.455  1.00  0.00    +0.208 C 
BRANCH  21  22
ATOM     22  C   UNL     1      47.728   8.375  14.349  1.00  0.00    +0.317 C 
ATOM     23  O   UNL     1      46.702   9.023  14.499  1.00  0.00    -0.251 OA
BRANCH  22  24
ATOM     24  O   UNL     1      48.344   8.268  13.143  1.00  0.00    -0.480 OA
ATOM     25  H   UNL     1      49.102   7.639  13.164  1.00  0.00    +0.296 HD
ENDBRANCH  22  24
ENDBRANCH  21  22
ENDBRANCH  20  21
BRANCH  20  26
ATOM     26  C   UNL     1      49.154   8.260  17.641  1.00  0.00    +0.208 C 
BRANCH  26  27
ATOM     27  C   UNL     1      48.242   9.436  17.982  1.00  0.00    +0.317 C 
ATOM     28  O   UNL     1      47.336   9.403  18.798  1.00  0.00    -0.251 OA
BRANCH  27  29
ATOM     29  O   UNL     1      48.526  10.535  17.233  1.00  0.00    -0.480 OA
ATOM     30  H   UNL     1      49.293  10.304  16.659  1.00  0.00    +0.296 HD
ENDBRANCH  27  29
ENDBRANCH  26  27
ENDBRANCH  20  26
ENDBRANCH  19  20
ENDBRANCH  18  19
ENDBRANCH  17  18
ENDBRANCH  16  17
ENDBRANCH   1  16
TORSDOF 21
ENDMDL
MODEL 6
REMARK minimizedAffinity -4.02248716
REMARK minimizedRMSD -1
REMARK SMILES O=C(O)CN(CCOCCOCCN(CC(=O)O)CC(=O)O)CC(=O)O
REMARK SMILES IDX 9 1 8 2 7 3 6 4 5 5 4 6 2 7 1 8 3 9 23 11 24 12 25 13 26 14
REMARK SMILES IDX 10 16 11 17 12 18 13 19 14 20 15 21 16 22 17 23 18 24 19 26
REMARK SMILES IDX 20 27 21 28 22 29
REMARK H PARENT 3 10 26 15 18 25 22 30
ROOT
ATOM      1  C   UNL     1      55.505   6.294   8.889  1.00  0.00    +0.188 C 
ENDROOT
BRANCH   1   2
ATOM      2  O   UNL     1      54.848   6.999   9.958  1.00  0.00    -0.378 OA
BRANCH   2   3
ATOM      3  C   UNL     1      53.418   7.017   9.789  1.00  0.00    +0.175 C 
BRANCH   3   4
ATOM      4  C   UNL     1      52.760   8.081  10.706  1.00  0.00    +0.114 C 
BRANCH   4   5
ATOM      5  N   UNL     1      52.760   7.813  12.178  1.00  0.00    -0.280 NA
BRANCH   5   6
ATOM      6  C   UNL     1      51.596   8.569  12.772  1.00  0.00    +0.208 C 
BRANCH   6   7
ATOM      7  C   UNL     1      51.842   8.967  14.228  1.00  0.00    +0.317 C 
ATOM      8  O   UNL     1      51.563   8.281  15.195  1.00  0.00    -0.251 OA
BRANCH   7   9
ATOM      9  O   UNL     1      52.366  10.217  14.334  1.00  0.00    -0.480 OA
ATOM     10  H   UNL     1      52.505  10.568  13.428  1.00  0.00    +0.296 HD
ENDBRANCH   7   9
ENDBRANCH   6   7
ENDBRANCH   5   6
BRANCH   5  11
ATOM     11  C   UNL     1      52.660   6.362  12.515  1.00  0.00    +0.208 C 
BRANCH  11  12
ATOM     12  C   UNL     1      53.832   5.835  13.326  1.00  0.00    +0.317 C 
ATOM     13  O   UNL     1      53.729   5.100  14.296  1.00  0.00    -0.251 OA
BRANCH  12  14
ATOM     14  O   UNL     1      55.027   6.194  12.827  1.00  0.00    -0.480 OA
ATOM     15  H   UNL     1      54.943   6.823  12.069  1.00  0.00    +0.296 HD
ENDBRANCH  12  14
ENDBRANCH  11  12
ENDBRANCH   5  11
ENDBRANCH   4   5
ENDBRANCH   3   4
ENDBRANCH   2   3
ENDBRANCH   1   2
BRANCH   1  16
ATOM     16  C   UNL     1      57.006   6.612   8.910  1.00  0.00    +0.188 C 
BRANCH  16  17
ATOM     17  O   UNL     1      57.431   7.174   7.651  1.00  0.00    -0.378 OA
BRANCH  17  18
ATOM     18  C   UNL     1      57.627   8.599   7.777  1.00  0.00    +0.175 C 
BRANCH  18  19
ATOM     19  C   UNL     1      58.246   8.995   9.144  1.00  0.00    +0.114 C 
BRANCH  19  20
ATOM     20  N   UNL     1      59.619   9.562   9.061  1.00  0.00    -0.280 NA
BRANCH  20  21
ATOM     21  C   UNL     1      60.638   8.640   9.620  1.00  0.00    +0.208 C 
BRANCH  21  22
ATOM     22  C   UNL     1      61.932   9.295  10.097  1.00  0.00    +0.317 C 
ATOM     23  O   UNL     1      61.998  10.093  11.021  1.00  0.00    -0.251 OA
BRANCH  22  24
ATOM     24  O   UNL     1      63.019   8.955   9.359  1.00  0.00    -0.480 OA
ATOM     25  H   UNL     1      62.788   8.376   8.595  1.00  0.00    +0.296 HD
ENDBRANCH  22  24
ENDBRANCH  21  22
ENDBRANCH  20  21
BRANCH  20  26
ATOM     26  C   UNL     1      60.011   9.901   7.660  1.00  0.00    +0.208 C 
BRANCH  26  27
ATOM     27  C   UNL     1      59.933  11.409   7.433  1.00  0.00    +0.317 C 
ATOM     28  O   UNL     1      59.474  11.943   6.437  1.00  0.00    -0.251 OA
BRANCH  27  29
ATOM     29  O   UNL     1      60.480  12.108   8.464  1.00  0.00    -0.480 OA
ATOM     30  H   UNL     1      60.773  11.451   9.137  1.00  0.00    +0.296 HD
ENDBRANCH  27  29
ENDBRANCH  26  27
ENDBRANCH  20  26
ENDBRANCH  19  20
ENDBRANCH  18  19
ENDBRANCH  17  18
ENDBRANCH  16  17
ENDBRANCH   1  16
TORSDOF 21
ENDMDL
MODEL 7
REMARK minimizedAffinity -4.01790237
REMARK minimizedRMSD -1
REMARK SMILES O=C(O)CN(CCOCCOCCN(CC(=O)O)CC(=O)O)CC(=O)O
REMARK SMILES IDX 9 1 8 2 7 3 6 4 5 5 4 6 2 7 1 8 3 9 23 11 24 12 25 13 26 14
REMARK SMILES IDX 10 16 11 17 12 18 13 19 14 20 15 21 16 22 17 23 18 24 19 26
REMARK SMILES IDX 20 27 21 28 22 29
REMARK H PARENT 3 10 26 15 18 25 22 30
ROOT
ATOM      1  C   UNL     1      47.666  10.036  10.484  1.00  0.00    +0.188 C 
ENDROOT
BRANCH   1   2
ATOM      2  O   UNL     1      47.197  10.666   9.278  1.00  0.00    -0.378 OA
BRANCH   2   3
ATOM      3  C   UNL     1      47.046   9.719   8.203  1.00  0.00    +0.175 C 
BRANCH   3   4
ATOM      4  C   UNL     1      47.795  10.194   6.930  1.00  0.00    +0.114 C 
BRANCH   4   5
ATOM      5  N   UNL     1      48.387  11.567   6.954  1.00  0.00    -0.280 NA
BRANCH   5   6
ATOM      6  C   UNL     1      49.879  11.411   7.112  1.00  0.00    +0.208 C 
BRANCH   6   7
ATOM      7  C   UNL     1      50.422  10.197   6.356  1.00  0.00    +0.317 C 
ATOM      8  O   UNL     1      50.360  10.043   5.149  1.00  0.00    -0.251 OA
BRANCH   7   9
ATOM      9  O   UNL     1      50.944   9.263   7.196  1.00  0.00    -0.480 OA
ATOM     10  H   UNL     1      50.884   9.610   8.113  1.00  0.00    +0.296 HD
ENDBRANCH   7   9
ENDBRANCH   6   7
ENDBRANCH   5   6
BRANCH   5  11
ATOM     11  C   UNL     1      48.078  12.366   5.730  1.00  0.00    +0.208 C 
BRANCH  11  12
ATOM     12  C   UNL     1      47.009  13.425   5.937  1.00  0.00    +0.317 C 
ATOM     13  O   UNL     1      47.226  14.562   6.326  1.00  0.00    -0.251 OA
BRANCH  12  14
ATOM     14  O   UNL     1      45.780  13.018   5.575  1.00  0.00    -0.480 OA
ATOM     15  H   UNL     1      45.762  12.062   5.323  1.00  0.00    +0.296 HD
ENDBRANCH  12  14
ENDBRANCH  11  12
ENDBRANCH   5  11
ENDBRANCH   4   5
ENDBRANCH   3   4
ENDBRANCH   2   3
ENDBRANCH   1   2
BRANCH   1  16
ATOM     16  C   UNL     1      49.185   9.837  10.403  1.00  0.00    +0.188 C 
BRANCH  16  17
ATOM     17  O   UNL     1      49.722   9.439  11.681  1.00  0.00    -0.378 OA
BRANCH  17  18
ATOM     18  C   UNL     1      49.010   8.290  12.190  1.00  0.00    +0.175 C 
BRANCH  18  19
ATOM     19  C   UNL     1      49.866   7.449  13.175  1.00  0.00    +0.114 C 
BRANCH  19  20
ATOM     20  N   UNL     1      51.253   7.952  13.375  1.00  0.00    -0.280 NA
BRANCH  20  21
ATOM     21  C   UNL     1      51.551   8.212  14.804  1.00  0.00    +0.208 C 
BRANCH  21  22
ATOM     22  C   UNL     1      51.608   9.683  15.209  1.00  0.00    +0.317 C 
ATOM     23  O   UNL     1      51.080  10.141  16.213  1.00  0.00    -0.251 OA
BRANCH  22  24
ATOM     24  O   UNL     1      52.260  10.470  14.315  1.00  0.00    -0.480 OA
ATOM     25  H   UNL     1      52.549   9.970  13.516  1.00  0.00    +0.296 HD
ENDBRANCH  22  24
ENDBRANCH  21  22
ENDBRANCH  20  21
BRANCH  20  26
ATOM     26  C   UNL     1      52.281   7.006  12.845  1.00  0.00    +0.208 C 
BRANCH  26  27
ATOM     27  C   UNL     1      53.051   7.645  11.692  1.00  0.00    +0.317 C 
ATOM     28  O   UNL     1      53.859   7.065  10.986  1.00  0.00    -0.251 OA
BRANCH  27  29
ATOM     29  O   UNL     1      52.765   8.968  11.559  1.00  0.00    -0.480 OA
ATOM     30  H   UNL     1      52.089   9.188  12.241  1.00  0.00    +0.296 HD
ENDBRANCH  27  29
ENDBRANCH  26  27
ENDBRANCH  20  26
ENDBRANCH  19  20
ENDBRANCH  18  19
ENDBRANCH  17  18
ENDBRANCH  16  17
ENDBRANCH   1  16
TORSDOF 21
ENDMDL
MODEL 8
REMARK minimizedAffinity -3.98342562
REMARK minimizedRMSD -1
REMARK SMILES O=C(O)CN(CCOCCOCCN(CC(=O)O)CC(=O)O)CC(=O)O
REMARK SMILES IDX 9 1 8 2 7 3 6 4 5 5 4 6 2 7 1 8 3 9 23 11 24 12 25 13 26 14
REMARK SMILES IDX 10 16 11 17 12 18 13 19 14 20 15 21 16 22 17 23 18 24 19 26
REMARK SMILES IDX 20 27 21 28 22 29
REMARK H PARENT 3 10 26 15 18 25 22 30
ROOT
ATOM      1  C   UNL     1      56.717   7.309   8.561  1.00  0.00    +0.188 C 
ENDROOT
BRANCH   1   2
ATOM      2  O   UNL     1      57.295   8.462   7.922  1.00  0.00    -0.378 OA
BRANCH   2   3
ATOM      3  C   UNL     1      58.352   9.039   8.711  1.00  0.00    +0.175 C 
BRANCH   3   4
ATOM      4  C   UNL     1      59.209  10.019   7.868  1.00  0.00    +0.114 C 
BRANCH   4   5
ATOM      5  N   UNL     1      60.556  10.390   8.404  1.00  0.00    -0.280 NA
BRANCH   5   6
ATOM      6  C   UNL     1      60.758  11.860   8.132  1.00  0.00    +0.208 C 
BRANCH   6   7
ATOM      7  C   UNL     1      61.728  12.112   6.976  1.00  0.00    +0.317 C 
ATOM      8  O   UNL     1      61.450  12.709   5.952  1.00  0.00    -0.251 OA
BRANCH   7   9
ATOM      9  O   UNL     1      62.942  11.540   7.194  1.00  0.00    -0.480 OA
ATOM     10  H   UNL     1      62.927  11.119   8.081  1.00  0.00    +0.296 HD
ENDBRANCH   7   9
ENDBRANCH   6   7
ENDBRANCH   5   6
BRANCH   5  11
ATOM     11  C   UNL     1      60.710  10.108   9.863  1.00  0.00    +0.208 C 
BRANCH  11  12
ATOM     12  C   UNL     1      62.149   9.897  10.302  1.00  0.00    +0.317 C 
ATOM     13  O   UNL     1      63.095   9.779   9.539  1.00  0.00    -0.251 OA
BRANCH  12  14
ATOM     14  O   UNL     1      62.308   9.927  11.635  1.00  0.00    -0.480 OA
ATOM     15  H   UNL     1      61.444   9.985  12.114  1.00  0.00    +0.296 HD
ENDBRANCH  12  14
ENDBRANCH  11  12
ENDBRANCH   5  11
ENDBRANCH   4   5
ENDBRANCH   3   4
ENDBRANCH   2   3
ENDBRANCH   1   2
BRANCH   1  16
ATOM     16  C   UNL     1      55.852   7.759   9.747  1.00  0.00    +0.188 C 
BRANCH  16  17
ATOM     17  O   UNL     1      55.381   6.623  10.501  1.00  0.00    -0.378 OA
BRANCH  17  18
ATOM     18  C   UNL     1      54.365   7.031  11.443  1.00  0.00    +0.175 C 
BRANCH  18  19
ATOM     19  C   UNL     1      53.456   8.159  10.885  1.00  0.00    +0.114 C 
BRANCH  19  20
ATOM     20  N   UNL     1      52.213   8.397  11.667  1.00  0.00    -0.280 NA
BRANCH  20  21
ATOM     21  C   UNL     1      51.019   7.814  11.007  1.00  0.00    +0.208 C 
BRANCH  21  22
ATOM     22  C   UNL     1      49.848   8.771  10.796  1.00  0.00    +0.317 C 
ATOM     23  O   UNL     1      48.799   8.462  10.249  1.00  0.00    -0.251 OA
BRANCH  22  24
ATOM     24  O   UNL     1      50.093  10.035  11.224  1.00  0.00    -0.480 OA
ATOM     25  H   UNL     1      51.014  10.147  11.558  1.00  0.00    +0.296 HD
ENDBRANCH  22  24
ENDBRANCH  21  22
ENDBRANCH  20  21
BRANCH  20  26
ATOM     26  C   UNL     1      52.300   7.847  13.053  1.00  0.00    +0.208 C 
BRANCH  26  27
ATOM     27  C   UNL     1      51.664   8.811  14.052  1.00  0.00    +0.317 C 
ATOM     28  O   UNL     1      50.658   8.580  14.703  1.00  0.00    -0.251 OA
BRANCH  27  29
ATOM     29  O   UNL     1      52.329   9.996  14.110  1.00  0.00    -0.480 OA
ATOM     30  H   UNL     1      53.097   9.928  13.497  1.00  0.00    +0.296 HD
ENDBRANCH  27  29
ENDBRANCH  26  27
ENDBRANCH  20  26
ENDBRANCH  19  20
ENDBRANCH  18  19
ENDBRANCH  17  18
ENDBRANCH  16  17
ENDBRANCH   1  16
TORSDOF 21
ENDMDL
MODEL 9
REMARK minimizedAffinity -3.95208859
REMARK minimizedRMSD -1
REMARK SMILES O=C(O)CN(CCOCCOCCN(CC(=O)O)CC(=O)O)CC(=O)O
REMARK SMILES IDX 9 1 8 2 7 3 6 4 5 5 4 6 2 7 1 8 3 9 23 11 24 12 25 13 26 14
REMARK SMILES IDX 10 16 11 17 12 18 13 19 14 20 15 21 16 22 17 23 18 24 19 26
REMARK SMILES IDX 20 27 21 28 22 29
REMARK H PARENT 3 10 26 15 18 25 22 30
ROOT
ATOM      1  C   UNL     1      53.481   5.492  18.150  1.00  0.00    +0.188 C 
ENDROOT
BRANCH   1   2
ATOM      2  O   UNL     1      54.563   5.686  19.079  1.00  0.00    -0.378 OA
BRANCH   2   3
ATOM      3  C   UNL     1      54.105   6.239  20.328  1.00  0.00    +0.175 C 
BRANCH   3   4
ATOM      4  C   UNL     1      54.874   7.539  20.680  1.00  0.00    +0.114 C 
BRANCH   4   5
ATOM      5  N   UNL     1      54.060   8.748  21.017  1.00  0.00    -0.280 NA
BRANCH   5   6
ATOM      6  C   UNL     1      52.713   8.265  21.494  1.00  0.00    +0.208 C 
BRANCH   6   7
ATOM      7  C   UNL     1      51.560   8.864  20.687  1.00  0.00    +0.317 C 
ATOM      8  O   UNL     1      50.382   8.785  20.991  1.00  0.00    -0.251 OA
BRANCH   7   9
ATOM      9  O   UNL     1      51.991   9.458  19.543  1.00  0.00    -0.480 OA
ATOM     10  H   UNL     1      52.970   9.398  19.518  1.00  0.00    +0.296 HD
ENDBRANCH   7   9
ENDBRANCH   6   7
ENDBRANCH   5   6
BRANCH   5  11
ATOM     11  C   UNL     1      54.694   9.617  22.054  1.00  0.00    +0.208 C 
BRANCH  11  12
ATOM     12  C   UNL     1      54.152  11.036  22.084  1.00  0.00    +0.317 C 
ATOM     13  O   UNL     1      53.652  11.607  21.128  1.00  0.00    -0.251 OA
BRANCH  12  14
ATOM     14  O   UNL     1      54.200  11.598  23.304  1.00  0.00    -0.480 OA
ATOM     15  H   UNL     1      54.671  11.027  23.960  1.00  0.00    +0.296 HD
ENDBRANCH  12  14
ENDBRANCH  11  12
ENDBRANCH   5  11
ENDBRANCH   4   5
ENDBRANCH   3   4
ENDBRANCH   2   3
ENDBRANCH   1   2
BRANCH   1  16
ATOM     16  C   UNL     1      52.141   5.646  18.882  1.00  0.00    +0.188 C 
BRANCH  16  17
ATOM     17  O   UNL     1      51.341   6.684  18.279  1.00  0.00    -0.378 OA
BRANCH  17  18
ATOM     18  C   UNL     1      50.744   6.210  17.052  1.00  0.00    +0.175 C 
BRANCH  18  19
ATOM     19  C   UNL     1      51.090   7.112  15.837  1.00  0.00    +0.114 C 
BRANCH  19  20
ATOM     20  N   UNL     1      50.285   8.361  15.743  1.00  0.00    -0.280 NA
BRANCH  20  21
ATOM     21  C   UNL     1      50.251   8.899  14.362  1.00  0.00    +0.208 C 
BRANCH  21  22
ATOM     22  C   UNL     1      51.609   9.238  13.751  1.00  0.00    +0.317 C 
ATOM     23  O   UNL     1      52.088   8.665  12.782  1.00  0.00    -0.251 OA
BRANCH  22  24
ATOM     24  O   UNL     1      52.280  10.210  14.419  1.00  0.00    -0.480 OA
ATOM     25  H   UNL     1      51.802  10.507  15.229  1.00  0.00    +0.296 HD
ENDBRANCH  22  24
ENDBRANCH  21  22
ENDBRANCH  20  21
BRANCH  20  26
ATOM     26  C   UNL     1      48.879   8.166  16.207  1.00  0.00    +0.208 C 
BRANCH  26  27
ATOM     27  C   UNL     1      48.512   9.214  17.256  1.00  0.00    +0.317 C 
ATOM     28  O   UNL     1      49.296   9.723  18.039  1.00  0.00    -0.251 OA
BRANCH  27  29
ATOM     29  O   UNL     1      47.181   9.494  17.252  1.00  0.00    -0.480 OA
ATOM     30  H   UNL     1      46.774   8.959  16.532  1.00  0.00    +0.296 HD
ENDBRANCH  27  29
ENDBRANCH  26  27
ENDBRANCH  20  26
ENDBRANCH  19  20
ENDBRANCH  18  19
ENDBRANCH  17  18
ENDBRANCH  16  17
ENDBRANCH   1  16
TORSDOF 21
ENDMDL
