MODEL 1
REMARK minimizedAffinity -3.432266
REMARK minimizedRMSD -1
REMARK SMILES O=C(O)CC(=O)O
REMARK SMILES IDX 4 1 2 2 1 3 3 4 5 6 6 7 7 8
REMARK H PARENT 3 5 7 9
ROOT
ATOM      1  C   UNL     1      50.777   9.182  13.009  1.00  0.00    +0.244 C 
ENDROOT
BRANCH   1   2
ATOM      2  C   UNL     1      51.558   9.367  14.280  1.00  0.00    +0.314 C 
ATOM      3  O   UNL     1      51.547   8.510  15.156  1.00  0.00    -0.252 OA
BRANCH   2   4
ATOM      4  O   UNL     1      52.271  10.500  14.424  1.00  0.00    -0.481 OA
ATOM      5  H   UNL     1      52.220  11.133  13.666  1.00  0.00    +0.296 HD
ENDBRANCH   2   4
ENDBRANCH   1   2
BRANCH   1   6
ATOM      6  C   UNL     1      51.492   8.548  11.863  1.00  0.00    +0.314 C 
ATOM      7  O   UNL     1      50.972   7.755  11.089  1.00  0.00    -0.252 OA
BRANCH   6   8
ATOM      8  O   UNL     1      52.783   8.926  11.752  1.00  0.00    -0.481 OA
ATOM      9  H   UNL     1      53.090   9.564  12.426  1.00  0.00    +0.296 HD
ENDBRANCH   6   8
ENDBRANCH   1   6
TORSDOF 4
ENDMDL
MODEL 2
REMARK minimizedAffinity -3.39995217
REMARK minimizedRMSD -1
REMARK SMILES O=C(O)CC(=O)O
REMARK SMILES IDX 4 1 2 2 1 3 3 4 5 6 6 7 7 8
REMARK H PARENT 3 5 7 9
ROOT
ATOM      1  C   UNL     1      51.091   8.564  13.992  1.00  0.00    +0.244 C 
ENDROOT
BRANCH   1   2
ATOM      2  C   UNL     1      51.217   8.962  12.548  1.00  0.00    +0.314 C 
ATOM      3  O   UNL     1      50.228   9.268  11.891  1.00  0.00    -0.252 OA
BRANCH   2   4
ATOM      4  O   UNL     1      52.447   8.972  12.001  1.00  0.00    -0.481 OA
ATOM      5  H   UNL     1      53.184   8.711  12.606  1.00  0.00    +0.296 HD
ENDBRANCH   2   4
ENDBRANCH   1   2
BRANCH   1   6
ATOM      6  C   UNL     1      51.421   9.605  15.009  1.00  0.00    +0.314 C 
ATOM      7  O   UNL     1      50.957   9.624  16.142  1.00  0.00    -0.252 OA
BRANCH   6   8
ATOM      8  O   UNL     1      52.289  10.541  14.568  1.00  0.00    -0.481 OA
ATOM      9  H   UNL     1      52.593  10.424  13.646  1.00  0.00    +0.296 HD
ENDBRANCH   6   8
ENDBRANCH   1   6
TORSDOF 4
ENDMDL
MODEL 3
REMARK minimizedAffinity -3.33880448
REMARK minimizedRMSD -1
REMARK SMILES O=C(O)CC(=O)O
REMARK SMILES IDX 4 1 2 2 1 3 3 4 5 6 6 7 7 8
REMARK H PARENT 3 5 7 9
ROOT
ATOM      1  C   UNL     1      60.420  11.886   8.577  1.00  0.00    +0.244 C 
ENDROOT
BRANCH   1   2
ATOM      2  C   UNL     1      59.619  11.205   7.504  1.00  0.00    +0.314 C 
ATOM      3  O   UNL     1      59.260  10.039   7.630  1.00  0.00    -0.252 OA
BRANCH   2   4
ATOM      4  O   UNL     1      59.305  11.914   6.404  1.00  0.00    -0.481 OA
ATOM      5  H   UNL     1      59.637  12.846   6.389  1.00  0.00    +0.296 HD
ENDBRANCH   2   4
ENDBRANCH   1   2
BRANCH   1   6
ATOM      6  C   UNL     1      61.038  11.011   9.616  1.00  0.00    +0.314 C 
ATOM      7  O   UNL     1      62.241  10.805   9.708  1.00  0.00    -0.252 OA
BRANCH   6   8
ATOM      8  O   UNL     1      60.142  10.454  10.460  1.00  0.00    -0.481 OA
ATOM      9  H   UNL     1      59.209  10.690  10.292  1.00  0.00    +0.296 HD
ENDBRANCH   6   8
ENDBRANCH   1   6
TORSDOF 4
ENDMDL
MODEL 4
REMARK minimizedAffinity -3.3312149
REMARK minimizedRMSD -1
REMARK SMILES O=C(O)CC(=O)O
REMARK SMILES IDX 4 1 2 2 1 3 3 4 5 6 6 7 7 8
REMARK H PARENT 3 5 7 9
ROOT
ATOM      1  C   UNL     1      46.844  16.555   6.531  1.00  0.00    +0.244 C 
ENDROOT
BRANCH   1   2
ATOM      2  C   UNL     1      48.154  16.166   5.905  1.00  0.00    +0.314 C 
ATOM      3  O   UNL     1      48.705  15.111   6.201  1.00  0.00    -0.252 OA
BRANCH   2   4
ATOM      4  O   UNL     1      48.701  17.009   5.009  1.00  0.00    -0.481 OA
ATOM      5  H   UNL     1      48.186  17.835   4.833  1.00  0.00    +0.296 HD
ENDBRANCH   2   4
ENDBRANCH   1   2
BRANCH   1   6
ATOM      6  C   UNL     1      46.842  17.776   7.388  1.00  0.00    +0.314 C 
ATOM      7  O   UNL     1      46.162  17.900   8.398  1.00  0.00    -0.252 OA
BRANCH   6   8
ATOM      8  O   UNL     1      47.667  18.750   6.948  1.00  0.00    -0.481 OA
ATOM      9  H   UNL     1      48.161  18.540   6.131  1.00  0.00    +0.296 HD
ENDBRANCH   6   8
ENDBRANCH   1   6
TORSDOF 4
ENDMDL
MODEL 5
REMARK minimizedAffinity -3.31615782
REMARK minimizedRMSD -1
REMARK SMILES O=C(O)CC(=O)O
REMARK SMILES IDX 4 1 2 2 1 3 3 4 5 6 6 7 7 8
REMARK H PARENT 3 5 7 9
ROOT
ATOM      1  C   UNL     1      46.894  16.524   6.498  1.00  0.00    +0.244 C 
ENDROOT
BRANCH   1   2
ATOM      2  C   UNL     1      46.909  17.774   7.332  1.00  0.00    +0.314 C 
ATOM      3  O   UNL     1      46.226  17.862   8.347  1.00  0.00    -0.252 OA
BRANCH   2   4
ATOM      4  O   UNL     1      47.696  18.791   6.933  1.00  0.00    -0.481 OA
ATOM      5  H   UNL     1      48.211  18.630   6.104  1.00  0.00    +0.296 HD
ENDBRANCH   2   4
ENDBRANCH   1   2
BRANCH   1   6
ATOM      6  C   UNL     1      48.187  16.110   5.878  1.00  0.00    +0.314 C 
ATOM      7  O   UNL     1      48.751  15.051   6.121  1.00  0.00    -0.252 OA
BRANCH   6   8
ATOM      8  O   UNL     1      48.691  17.018   5.015  1.00  0.00    -0.481 OA
ATOM      9  H   UNL     1      48.154  17.826   4.900  1.00  0.00    +0.296 HD
ENDBRANCH   6   8
ENDBRANCH   1   6
TORSDOF 4
ENDMDL
MODEL 6
REMARK minimizedAffinity -3.15487003
REMARK minimizedRMSD -1
REMARK SMILES O=C(O)CC(=O)O
REMARK SMILES IDX 4 1 2 2 1 3 3 4 5 6 6 7 7 8
REMARK H PARENT 3 5 7 9
ROOT
ATOM      1  C   UNL     1      50.958   8.538  15.403  1.00  0.00    +0.244 C 
ENDROOT
BRANCH   1   2
ATOM      2  C   UNL     1      50.454   9.326  16.579  1.00  0.00    +0.314 C 
ATOM      3  O   UNL     1      49.269   9.626  16.675  1.00  0.00    -0.252 OA
BRANCH   2   4
ATOM      4  O   UNL     1      51.342   9.690  17.523  1.00  0.00    -0.481 OA
ATOM      5  H   UNL     1      52.275   9.405  17.362  1.00  0.00    +0.296 HD
ENDBRANCH   2   4
ENDBRANCH   1   2
BRANCH   1   6
ATOM      6  C   UNL     1      51.630   9.306  14.314  1.00  0.00    +0.314 C 
ATOM      7  O   UNL     1      51.532   9.032  13.125  1.00  0.00    -0.252 OA
BRANCH   6   8
ATOM      8  O   UNL     1      52.369  10.345  14.758  1.00  0.00    -0.481 OA
ATOM      9  H   UNL     1      52.374  10.469  15.728  1.00  0.00    +0.296 HD
ENDBRANCH   6   8
ENDBRANCH   1   6
TORSDOF 4
ENDMDL
MODEL 7
REMARK minimizedAffinity -3.10667992
REMARK minimizedRMSD -1
REMARK SMILES O=C(O)CC(=O)O
REMARK SMILES IDX 4 1 2 2 1 3 3 4 5 6 6 7 7 8
REMARK H PARENT 3 5 7 9
ROOT
ATOM      1  C   UNL     1      59.681  10.008   7.835  1.00  0.00    +0.244 C 
ENDROOT
BRANCH   1   2
ATOM      2  C   UNL     1      59.155   9.640   9.194  1.00  0.00    +0.314 C 
ATOM      3  O   UNL     1      58.131   8.977   9.314  1.00  0.00    -0.252 OA
BRANCH   2   4
ATOM      4  O   UNL     1      59.843  10.060  10.272  1.00  0.00    -0.481 OA
ATOM      5  H   UNL     1      60.655  10.589  10.079  1.00  0.00    +0.296 HD
ENDBRANCH   2   4
ENDBRANCH   1   2
BRANCH   1   6
ATOM      6  C   UNL     1      59.740  11.462   7.505  1.00  0.00    +0.314 C 
ATOM      7  O   UNL     1      59.595  11.912   6.376  1.00  0.00    -0.252 OA
BRANCH   6   8
ATOM      8  O   UNL     1      59.973  12.253   8.574  1.00  0.00    -0.481 OA
ATOM      9  H   UNL     1      60.073  11.784   9.425  1.00  0.00    +0.296 HD
ENDBRANCH   6   8
ENDBRANCH   1   6
TORSDOF 4
ENDMDL
MODEL 8
REMARK minimizedAffinity -3.01634169
REMARK minimizedRMSD -1
REMARK SMILES O=C(O)CC(=O)O
REMARK SMILES IDX 4 1 2 2 1 3 3 4 5 6 6 7 7 8
REMARK H PARENT 3 5 7 9
ROOT
ATOM      1  C   UNL     1      59.959  10.088   7.941  1.00  0.00    +0.244 C 
ENDROOT
BRANCH   1   2
ATOM      2  C   UNL     1      59.819  11.541   7.582  1.00  0.00    +0.314 C 
ATOM      3  O   UNL     1      59.746  11.896   6.411  1.00  0.00    -0.252 OA
BRANCH   2   4
ATOM      4  O   UNL     1      59.773  12.438   8.585  1.00  0.00    -0.481 OA
ATOM      5  H   UNL     1      59.839  12.061   9.497  1.00  0.00    +0.296 HD
ENDBRANCH   2   4
ENDBRANCH   1   2
BRANCH   1   6
ATOM      6  C   UNL     1      59.310   9.641   9.208  1.00  0.00    +0.314 C 
ATOM      7  O   UNL     1      58.324   8.916   9.251  1.00  0.00    -0.252 OA
BRANCH   6   8
ATOM      8  O   UNL     1      59.910  10.112  10.322  1.00  0.00    -0.481 OA
ATOM      9  H   UNL     1      60.689  10.681  10.167  1.00  0.00    +0.296 HD
ENDBRANCH   6   8
ENDBRANCH   1   6
TORSDOF 4
ENDMDL
MODEL 9
REMARK minimizedAffinity -2.93692946
REMARK minimizedRMSD -1
REMARK SMILES O=C(O)CC(=O)O
REMARK SMILES IDX 4 1 2 2 1 3 3 4 5 6 6 7 7 8
REMARK H PARENT 3 5 7 9
ROOT
ATOM      1  C   UNL     1      50.582   8.974  15.359  1.00  0.00    +0.244 C 
ENDROOT
BRANCH   1   2
ATOM      2  C   UNL     1      51.650   9.399  14.391  1.00  0.00    +0.314 C 
ATOM      3  O   UNL     1      51.941   8.699  13.427  1.00  0.00    -0.252 OA
BRANCH   2   4
ATOM      4  O   UNL     1      52.276  10.569  14.616  1.00  0.00    -0.481 OA
ATOM      5  H   UNL     1      51.977  11.065  15.417  1.00  0.00    +0.296 HD
ENDBRANCH   2   4
ENDBRANCH   1   2
BRANCH   1   6
ATOM      6  C   UNL     1      50.797   7.684  16.079  1.00  0.00    +0.314 C 
ATOM      7  O   UNL     1      49.945   7.135  16.764  1.00  0.00    -0.252 OA
BRANCH   6   8
ATOM      8  O   UNL     1      52.033   7.168  15.910  1.00  0.00    -0.481 OA
ATOM      9  H   UNL     1      52.630   7.693  15.342  1.00  0.00    +0.296 HD
ENDBRANCH   6   8
ENDBRANCH   1   6
TORSDOF 4
ENDMDL
