MODEL 1
REMARK minimizedAffinity -3.24299359
REMARK minimizedRMSD -1
REMARK SMILES O=C(O)C(=O)O
REMARK SMILES IDX 2 1 1 2 3 3 4 5 5 6 6 7
REMARK H PARENT 3 4 6 8
ROOT
ATOM      1  C   UNL     1      51.593   9.429  14.559  1.00  0.00    +0.414 C 
ATOM      2  O   UNL     1      51.221   8.718  15.475  1.00  0.00    -0.238 OA
ENDROOT
BRANCH   1   3
ATOM      3  O   UNL     1      52.305  10.562  14.650  1.00  0.00    -0.473 OA
ATOM      4  H   UNL     1      52.463  10.928  13.747  1.00  0.00    +0.297 HD
ENDBRANCH   1   3
BRANCH   1   5
ATOM      5  C   UNL     1      51.258   9.070  13.103  1.00  0.00    +0.414 C 
ATOM      6  O   UNL     1      50.100   8.945  12.744  1.00  0.00    -0.238 OA
BRANCH   5   7
ATOM      7  O   UNL     1      52.359   8.926  12.351  1.00  0.00    -0.473 OA
ATOM      8  H   UNL     1      53.161   9.085  12.902  1.00  0.00    +0.297 HD
ENDBRANCH   5   7
ENDBRANCH   1   5
TORSDOF 3
ENDMDL
MODEL 2
REMARK minimizedAffinity -3.24035072
REMARK minimizedRMSD -1
REMARK SMILES O=C(O)C(=O)O
REMARK SMILES IDX 2 1 1 2 3 3 4 5 5 6 6 7
REMARK H PARENT 3 4 6 8
ROOT
ATOM      1  C   UNL     1      51.266   9.072  13.082  1.00  0.00    +0.414 C 
ATOM      2  O   UNL     1      50.108   8.959  12.723  1.00  0.00    -0.238 OA
ENDROOT
BRANCH   1   3
ATOM      3  O   UNL     1      52.366   8.924  12.330  1.00  0.00    -0.473 OA
ATOM      4  H   UNL     1      53.169   9.072  12.883  1.00  0.00    +0.297 HD
ENDBRANCH   1   3
BRANCH   1   5
ATOM      5  C   UNL     1      51.604   9.421  14.540  1.00  0.00    +0.414 C 
ATOM      6  O   UNL     1      51.247   8.695  15.452  1.00  0.00    -0.238 OA
BRANCH   5   7
ATOM      7  O   UNL     1      52.298  10.564  14.640  1.00  0.00    -0.473 OA
ATOM      8  H   UNL     1      52.447  10.941  13.740  1.00  0.00    +0.297 HD
ENDBRANCH   5   7
ENDBRANCH   1   5
TORSDOF 3
ENDMDL
MODEL 3
REMARK minimizedAffinity -3.19561958
REMARK minimizedRMSD -1
REMARK SMILES O=C(O)C(=O)O
REMARK SMILES IDX 2 1 1 2 3 3 4 5 5 6 6 7
REMARK H PARENT 3 4 6 8
ROOT
ATOM      1  C   UNL     1      47.974  16.664   6.346  1.00  0.00    +0.414 C 
ATOM      2  O   UNL     1      47.901  15.515   6.745  1.00  0.00    -0.238 OA
ENDROOT
BRANCH   1   3
ATOM      3  O   UNL     1      48.542  17.093   5.210  1.00  0.00    -0.473 OA
ATOM      4  H   UNL     1      48.455  18.074   5.145  1.00  0.00    +0.297 HD
ENDBRANCH   1   3
BRANCH   1   5
ATOM      5  C   UNL     1      47.380  17.818   7.169  1.00  0.00    +0.414 C 
ATOM      6  O   UNL     1      46.564  17.599   8.048  1.00  0.00    -0.238 OA
BRANCH   5   7
ATOM      7  O   UNL     1      47.865  19.010   6.794  1.00  0.00    -0.473 OA
ATOM      8  H   UNL     1      48.511  18.888   6.058  1.00  0.00    +0.297 HD
ENDBRANCH   5   7
ENDBRANCH   1   5
TORSDOF 3
ENDMDL
MODEL 4
REMARK minimizedAffinity -2.90003204
REMARK minimizedRMSD -1
REMARK SMILES O=C(O)C(=O)O
REMARK SMILES IDX 2 1 1 2 3 3 4 5 5 6 6 7
REMARK H PARENT 3 4 6 8
ROOT
ATOM      1  C   UNL     1      51.661   9.473  14.360  1.00  0.00    +0.414 C 
ATOM      2  O   UNL     1      51.505   9.050  13.229  1.00  0.00    -0.238 OA
ENDROOT
BRANCH   1   3
ATOM      3  O   UNL     1      52.363  10.553  14.733  1.00  0.00    -0.473 OA
ATOM      4  H   UNL     1      52.318  10.656  15.713  1.00  0.00    +0.297 HD
ENDBRANCH   1   3
BRANCH   1   5
ATOM      5  C   UNL     1      51.021   8.755  15.559  1.00  0.00    +0.414 C 
ATOM      6  O   UNL     1      50.047   9.227  16.119  1.00  0.00    -0.238 OA
BRANCH   5   7
ATOM      7  O   UNL     1      51.659   7.616  15.867  1.00  0.00    -0.473 OA
ATOM      8  H   UNL     1      52.413   7.480  15.246  1.00  0.00    +0.297 HD
ENDBRANCH   5   7
ENDBRANCH   1   5
TORSDOF 3
ENDMDL
MODEL 5
REMARK minimizedAffinity -2.62370181
REMARK minimizedRMSD -1
REMARK SMILES O=C(O)C(=O)O
REMARK SMILES IDX 2 1 1 2 3 3 4 5 5 6 6 7
REMARK H PARENT 3 4 6 8
ROOT
ATOM      1  C   UNL     1      59.393  10.026   8.163  1.00  0.00    +0.414 C 
ATOM      2  O   UNL     1      59.428   9.122   7.347  1.00  0.00    -0.238 OA
ENDROOT
BRANCH   1   3
ATOM      3  O   UNL     1      59.098   9.929   9.468  1.00  0.00    -0.473 OA
ATOM      4  H   UNL     1      59.145  10.822   9.885  1.00  0.00    +0.297 HD
ENDBRANCH   1   3
BRANCH   1   5
ATOM      5  C   UNL     1      59.705  11.471   7.744  1.00  0.00    +0.414 C 
ATOM      6  O   UNL     1      59.558  11.830   6.589  1.00  0.00    -0.238 OA
BRANCH   5   7
ATOM      7  O   UNL     1      60.133  12.216   8.775  1.00  0.00    -0.473 OA
ATOM      8  H   UNL     1      60.154  11.666   9.594  1.00  0.00    +0.297 HD
ENDBRANCH   5   7
ENDBRANCH   1   5
TORSDOF 3
ENDMDL
MODEL 6
REMARK minimizedAffinity -2.61774611
REMARK minimizedRMSD -1
REMARK SMILES O=C(O)C(=O)O
REMARK SMILES IDX 2 1 1 2 3 3 4 5 5 6 6 7
REMARK H PARENT 3 4 6 8
ROOT
ATOM      1  C   UNL     1      51.763   7.924  14.734  1.00  0.00    +0.414 C 
ATOM      2  O   UNL     1      51.288   7.682  15.829  1.00  0.00    -0.238 OA
ENDROOT
BRANCH   1   3
ATOM      3  O   UNL     1      52.462   7.089  13.951  1.00  0.00    -0.473 OA
ATOM      4  H   UNL     1      52.723   7.554  13.121  1.00  0.00    +0.297 HD
ENDBRANCH   1   3
BRANCH   1   5
ATOM      5  C   UNL     1      51.595   9.313  14.098  1.00  0.00    +0.414 C 
ATOM      6  O   UNL     1      50.800   9.490  13.192  1.00  0.00    -0.238 OA
BRANCH   5   7
ATOM      7  O   UNL     1      52.404  10.226  14.656  1.00  0.00    -0.473 OA
ATOM      8  H   UNL     1      52.940   9.804  15.368  1.00  0.00    +0.297 HD
ENDBRANCH   5   7
ENDBRANCH   1   5
TORSDOF 3
ENDMDL
MODEL 7
REMARK minimizedAffinity -2.58207941
REMARK minimizedRMSD -1
REMARK SMILES O=C(O)C(=O)O
REMARK SMILES IDX 2 1 1 2 3 3 4 5 5 6 6 7
REMARK H PARENT 3 4 6 8
ROOT
ATOM      1  C   UNL     1      60.032  11.023   8.548  1.00  0.00    +0.414 C 
ATOM      2  O   UNL     1      60.971  11.790   8.667  1.00  0.00    -0.238 OA
ENDROOT
BRANCH   1   3
ATOM      3  O   UNL     1      59.460  10.286   9.512  1.00  0.00    -0.473 OA
ATOM      4  H   UNL     1      58.721   9.756   9.130  1.00  0.00    +0.297 HD
ENDBRANCH   1   3
BRANCH   1   5
ATOM      5  C   UNL     1      59.363  10.810   7.181  1.00  0.00    +0.414 C 
ATOM      6  O   UNL     1      58.922   9.718   6.868  1.00  0.00    -0.238 OA
BRANCH   5   7
ATOM      7  O   UNL     1      59.346  11.932   6.446  1.00  0.00    -0.473 OA
ATOM      8  H   UNL     1      59.772  12.665   6.949  1.00  0.00    +0.297 HD
ENDBRANCH   5   7
ENDBRANCH   1   5
TORSDOF 3
ENDMDL
MODEL 8
REMARK minimizedAffinity -2.56940651
REMARK minimizedRMSD -1
REMARK SMILES O=C(O)C(=O)O
REMARK SMILES IDX 2 1 1 2 3 3 4 5 5 6 6 7
REMARK H PARENT 3 4 6 8
ROOT
ATOM      1  C   UNL     1      60.274  11.703   7.982  1.00  0.00    +0.414 C 
ATOM      2  O   UNL     1      59.607  11.914   6.985  1.00  0.00    -0.238 OA
ENDROOT
BRANCH   1   3
ATOM      3  O   UNL     1      59.844  11.227   9.159  1.00  0.00    -0.473 OA
ATOM      4  H   UNL     1      60.602  11.159   9.787  1.00  0.00    +0.297 HD
ENDBRANCH   1   3
BRANCH   1   5
ATOM      5  C   UNL     1      61.785  11.985   7.987  1.00  0.00    +0.414 C 
ATOM      6  O   UNL     1      62.297  12.650   7.103  1.00  0.00    -0.238 OA
BRANCH   5   7
ATOM      7  O   UNL     1      62.401  11.423   9.038  1.00  0.00    -0.473 OA
ATOM      8  H   UNL     1      61.741  10.942   9.591  1.00  0.00    +0.297 HD
ENDBRANCH   5   7
ENDBRANCH   1   5
TORSDOF 3
ENDMDL
MODEL 9
REMARK minimizedAffinity -2.51726484
REMARK minimizedRMSD -1
REMARK SMILES O=C(O)C(=O)O
REMARK SMILES IDX 2 1 1 2 3 3 4 5 5 6 6 7
REMARK H PARENT 3 4 6 8
ROOT
ATOM      1  C   UNL     1      59.569  11.025   8.161  1.00  0.00    +0.414 C 
ATOM      2  O   UNL     1      59.220  10.831   7.011  1.00  0.00    -0.238 OA
ENDROOT
BRANCH   1   3
ATOM      3  O   UNL     1      59.979  12.184   8.699  1.00  0.00    -0.473 OA
ATOM      4  H   UNL     1      60.201  12.048   9.651  1.00  0.00    +0.297 HD
ENDBRANCH   1   3
BRANCH   1   5
ATOM      5  C   UNL     1      59.574   9.878   9.184  1.00  0.00    +0.414 C 
ATOM      6  O   UNL     1      59.243   8.752   8.856  1.00  0.00    -0.238 OA
BRANCH   5   7
ATOM      7  O   UNL     1      59.970  10.284  10.399  1.00  0.00    -0.473 OA
ATOM      8  H   UNL     1      60.178  11.248  10.375  1.00  0.00    +0.297 HD
ENDBRANCH   5   7
ENDBRANCH   1   5
TORSDOF 3
ENDMDL
