MODEL 1
REMARK minimizedAffinity -4.85144424
REMARK minimizedRMSD -1
REMARK SMILES O=C(O)c1ccccc1O
REMARK SMILES IDX 4 1 5 2 6 3 7 4 8 5 9 6 2 7 1 8 3 9 10 11
REMARK H PARENT 3 10 10 12
ROOT
ATOM      1  C   UNL     1      62.685  10.462   9.922  1.00  0.00    +0.101 A 
ATOM      2  C   UNL     1      63.606  10.945   8.978  1.00  0.00    +0.019 A 
ATOM      3  C   UNL     1      63.176  11.744   7.919  1.00  0.00    +0.001 A 
ATOM      4  C   UNL     1      61.830  12.081   7.805  1.00  0.00    +0.004 A 
ATOM      5  C   UNL     1      60.905  11.618   8.741  1.00  0.00    +0.047 A 
ATOM      6  C   UNL     1      61.335  10.806   9.793  1.00  0.00    +0.130 A 
ENDROOT
BRANCH   1   7
ATOM      7  C   UNL     1      63.216   9.614  11.024  1.00  0.00    +0.339 C 
ATOM      8  O   UNL     1      63.963  10.045  11.887  1.00  0.00    -0.246 OA
BRANCH   7   9
ATOM      9  O   UNL     1      62.859   8.313  10.948  1.00  0.00    -0.478 OA
ATOM     10  H   UNL     1      62.180   8.159  10.256  1.00  0.00    +0.297 HD
ENDBRANCH   7   9
ENDBRANCH   1   7
BRANCH   6  11
ATOM     11  O   UNL     1      60.417  10.332  10.694  1.00  0.00    -0.507 OA
ATOM     12  H   UNL     1      59.597  10.850  10.598  1.00  0.00    +0.293 HD
ENDBRANCH   6  11
TORSDOF 3
ENDMDL
MODEL 2
REMARK minimizedAffinity -4.74011946
REMARK minimizedRMSD -1
REMARK SMILES O=C(O)c1ccccc1O
REMARK SMILES IDX 4 1 5 2 6 3 7 4 8 5 9 6 2 7 1 8 3 9 10 11
REMARK H PARENT 3 10 10 12
ROOT
ATOM      1  C   UNL     1      61.450  11.207   8.730  1.00  0.00    +0.101 A 
ATOM      2  C   UNL     1      62.808  11.340   8.401  1.00  0.00    +0.019 A 
ATOM      3  C   UNL     1      63.790  10.791   9.225  1.00  0.00    +0.001 A 
ATOM      4  C   UNL     1      63.423  10.091  10.372  1.00  0.00    +0.004 A 
ATOM      5  C   UNL     1      62.077   9.941  10.706  1.00  0.00    +0.047 A 
ATOM      6  C   UNL     1      61.096  10.504   9.887  1.00  0.00    +0.130 A 
ENDROOT
BRANCH   1   7
ATOM      7  C   UNL     1      60.458  11.819   7.804  1.00  0.00    +0.339 C 
ATOM      8  O   UNL     1      60.516  11.685   6.593  1.00  0.00    -0.246 OA
BRANCH   7   9
ATOM      9  O   UNL     1      59.532  12.593   8.411  1.00  0.00    -0.478 OA
ATOM     10  H   UNL     1      59.570  12.511   9.389  1.00  0.00    +0.297 HD
ENDBRANCH   7   9
ENDBRANCH   1   7
BRANCH   6  11
ATOM     11  O   UNL     1      59.776  10.377  10.235  1.00  0.00    -0.507 OA
ATOM     12  H   UNL     1      59.702   9.676  10.910  1.00  0.00    +0.293 HD
ENDBRANCH   6  11
TORSDOF 3
ENDMDL
MODEL 3
REMARK minimizedAffinity -4.7226634
REMARK minimizedRMSD -1
REMARK SMILES O=C(O)c1ccccc1O
REMARK SMILES IDX 4 1 5 2 6 3 7 4 8 5 9 6 2 7 1 8 3 9 10 11
REMARK H PARENT 3 10 10 12
ROOT
ATOM      1  C   UNL     1      61.339  11.033   8.976  1.00  0.00    +0.101 A 
ATOM      2  C   UNL     1      62.692  10.788   9.260  1.00  0.00    +0.019 A 
ATOM      3  C   UNL     1      63.693  11.382   8.492  1.00  0.00    +0.001 A 
ATOM      4  C   UNL     1      63.351  12.237   7.447  1.00  0.00    +0.004 A 
ATOM      5  C   UNL     1      62.011  12.498   7.159  1.00  0.00    +0.047 A 
ATOM      6  C   UNL     1      61.010  11.892   7.921  1.00  0.00    +0.130 A 
ENDROOT
BRANCH   1   7
ATOM      7  C   UNL     1      60.326  10.365   9.838  1.00  0.00    +0.339 C 
ATOM      8  O   UNL     1      59.399   9.716   9.384  1.00  0.00    -0.246 OA
BRANCH   7   9
ATOM      9  O   UNL     1      60.480  10.596  11.161  1.00  0.00    -0.478 OA
ATOM     10  H   UNL     1      61.328  11.051  11.357  1.00  0.00    +0.297 HD
ENDBRANCH   7   9
ENDBRANCH   1   7
BRANCH   6  11
ATOM     11  O   UNL     1      59.695  12.132   7.617  1.00  0.00    -0.507 OA
ATOM     12  H   UNL     1      59.652  12.913   7.035  1.00  0.00    +0.293 HD
ENDBRANCH   6  11
TORSDOF 3
ENDMDL
MODEL 4
REMARK minimizedAffinity -4.61492252
REMARK minimizedRMSD -1
REMARK SMILES O=C(O)c1ccccc1O
REMARK SMILES IDX 4 1 5 2 6 3 7 4 8 5 9 6 2 7 1 8 3 9 10 11
REMARK H PARENT 3 10 10 12
ROOT
ATOM      1  C   UNL     1      61.719  12.110   6.931  1.00  0.00    +0.101 A 
ATOM      2  C   UNL     1      62.814  11.865   7.774  1.00  0.00    +0.019 A 
ATOM      3  C   UNL     1      62.625  11.262   9.018  1.00  0.00    +0.001 A 
ATOM      4  C   UNL     1      61.346  10.885   9.420  1.00  0.00    +0.004 A 
ATOM      5  C   UNL     1      60.249  11.112   8.588  1.00  0.00    +0.047 A 
ATOM      6  C   UNL     1      60.438  11.729   7.349  1.00  0.00    +0.130 A 
ENDROOT
BRANCH   1   7
ATOM      7  C   UNL     1      61.996  12.756   5.619  1.00  0.00    +0.339 C 
ATOM      8  O   UNL     1      61.740  12.222   4.553  1.00  0.00    -0.246 OA
BRANCH   7   9
ATOM      9  O   UNL     1      62.619  13.952   5.708  1.00  0.00    -0.478 OA
ATOM     10  H   UNL     1      62.659  14.277   6.634  1.00  0.00    +0.297 HD
ENDBRANCH   7   9
ENDBRANCH   1   7
BRANCH   6  11
ATOM     11  O   UNL     1      59.354  11.974   6.548  1.00  0.00    -0.507 OA
ATOM     12  H   UNL     1      58.604  11.443   6.875  1.00  0.00    +0.293 HD
ENDBRANCH   6  11
TORSDOF 3
ENDMDL
MODEL 5
REMARK minimizedAffinity -4.21504641
REMARK minimizedRMSD -1
REMARK SMILES O=C(O)c1ccccc1O
REMARK SMILES IDX 4 1 5 2 6 3 7 4 8 5 9 6 2 7 1 8 3 9 10 11
REMARK H PARENT 3 10 10 12
ROOT
ATOM      1  C   UNL     1      50.415   9.060  15.257  1.00  0.00    +0.101 A 
ATOM      2  C   UNL     1      49.313   8.696  14.468  1.00  0.00    +0.019 A 
ATOM      3  C   UNL     1      48.030   8.683  15.013  1.00  0.00    +0.001 A 
ATOM      4  C   UNL     1      47.835   9.049  16.342  1.00  0.00    +0.004 A 
ATOM      5  C   UNL     1      48.920   9.424  17.136  1.00  0.00    +0.047 A 
ATOM      6  C   UNL     1      50.206   9.423  16.593  1.00  0.00    +0.130 A 
ENDROOT
BRANCH   1   7
ATOM      7  C   UNL     1      51.755   9.051  14.608  1.00  0.00    +0.339 C 
ATOM      8  O   UNL     1      52.248   8.044  14.127  1.00  0.00    -0.246 OA
BRANCH   7   9
ATOM      9  O   UNL     1      52.408  10.233  14.660  1.00  0.00    -0.478 OA
ATOM     10  H   UNL     1      51.831  10.957  14.989  1.00  0.00    +0.297 HD
ENDBRANCH   7   9
ENDBRANCH   1   7
BRANCH   6  11
ATOM     11  O   UNL     1      51.271   9.767  17.385  1.00  0.00    -0.507 OA
ATOM     12  H   UNL     1      50.929  10.209  18.184  1.00  0.00    +0.293 HD
ENDBRANCH   6  11
TORSDOF 3
ENDMDL
MODEL 6
REMARK minimizedAffinity -4.20555687
REMARK minimizedRMSD -1
REMARK SMILES O=C(O)c1ccccc1O
REMARK SMILES IDX 4 1 5 2 6 3 7 4 8 5 9 6 2 7 1 8 3 9 10 11
REMARK H PARENT 3 10 10 12
ROOT
ATOM      1  C   UNL     1      50.690   8.988  14.007  1.00  0.00    +0.101 A 
ATOM      2  C   UNL     1      49.562   8.219  14.330  1.00  0.00    +0.019 A 
ATOM      3  C   UNL     1      49.092   8.173  15.643  1.00  0.00    +0.001 A 
ATOM      4  C   UNL     1      49.735   8.908  16.636  1.00  0.00    +0.004 A 
ATOM      5  C   UNL     1      50.851   9.686  16.328  1.00  0.00    +0.047 A 
ATOM      6  C   UNL     1      51.328   9.719  15.015  1.00  0.00    +0.130 A 
ENDROOT
BRANCH   1   7
ATOM      7  C   UNL     1      51.134   8.989  12.585  1.00  0.00    +0.339 C 
ATOM      8  O   UNL     1      50.352   9.040  11.650  1.00  0.00    -0.246 OA
BRANCH   7   9
ATOM      9  O   UNL     1      52.468   8.856  12.418  1.00  0.00    -0.478 OA
ATOM     10  H   UNL     1      52.954   8.929  13.269  1.00  0.00    +0.297 HD
ENDBRANCH   7   9
ENDBRANCH   1   7
BRANCH   6  11
ATOM     11  O   UNL     1      52.441  10.464  14.723  1.00  0.00    -0.507 OA
ATOM     12  H   UNL     1      52.604  11.077  15.464  1.00  0.00    +0.293 HD
ENDBRANCH   6  11
TORSDOF 3
ENDMDL
MODEL 7
REMARK minimizedAffinity -4.13933134
REMARK minimizedRMSD -1
REMARK SMILES O=C(O)c1ccccc1O
REMARK SMILES IDX 4 1 5 2 6 3 7 4 8 5 9 6 2 7 1 8 3 9 10 11
REMARK H PARENT 3 10 10 12
ROOT
ATOM      1  C   UNL     1      50.797   8.944  13.295  1.00  0.00    +0.101 A 
ATOM      2  C   UNL     1      49.414   8.743  13.431  1.00  0.00    +0.019 A 
ATOM      3  C   UNL     1      48.645   8.368  12.330  1.00  0.00    +0.001 A 
ATOM      4  C   UNL     1      49.252   8.175  11.091  1.00  0.00    +0.004 A 
ATOM      5  C   UNL     1      50.627   8.360  10.943  1.00  0.00    +0.047 A 
ATOM      6  C   UNL     1      51.394   8.749  12.044  1.00  0.00    +0.130 A 
ENDROOT
BRANCH   1   7
ATOM      7  C   UNL     1      51.554   9.343  14.513  1.00  0.00    +0.339 C 
ATOM      8  O   UNL     1      51.492   8.722  15.561  1.00  0.00    -0.246 OA
BRANCH   7   9
ATOM      9  O   UNL     1      52.257  10.489  14.382  1.00  0.00    -0.478 OA
ATOM     10  H   UNL     1      52.277  10.802  13.451  1.00  0.00    +0.297 HD
ENDBRANCH   7   9
ENDBRANCH   1   7
BRANCH   6  11
ATOM     11  O   UNL     1      52.739   8.956  11.886  1.00  0.00    -0.507 OA
ATOM     12  H   UNL     1      53.015   8.553  11.042  1.00  0.00    +0.293 HD
ENDBRANCH   6  11
TORSDOF 3
ENDMDL
MODEL 8
REMARK minimizedAffinity -4.03728914
REMARK minimizedRMSD -1
REMARK SMILES O=C(O)c1ccccc1O
REMARK SMILES IDX 4 1 5 2 6 3 7 4 8 5 9 6 2 7 1 8 3 9 10 11
REMARK H PARENT 3 10 10 12
ROOT
ATOM      1  C   UNL     1      50.462   9.030  15.361  1.00  0.00    +0.101 A 
ATOM      2  C   UNL     1      49.619   7.981  14.964  1.00  0.00    +0.019 A 
ATOM      3  C   UNL     1      49.777   7.384  13.714  1.00  0.00    +0.001 A 
ATOM      4  C   UNL     1      50.787   7.818  12.859  1.00  0.00    +0.004 A 
ATOM      5  C   UNL     1      51.640   8.852  13.245  1.00  0.00    +0.047 A 
ATOM      6  C   UNL     1      51.471   9.459  14.491  1.00  0.00    +0.130 A 
ENDROOT
BRANCH   1   7
ATOM      7  C   UNL     1      50.234   9.619  16.709  1.00  0.00    +0.339 C 
ATOM      8  O   UNL     1      49.155  10.070  17.058  1.00  0.00    -0.246 OA
BRANCH   7   9
ATOM      9  O   UNL     1      51.338   9.677  17.486  1.00  0.00    -0.478 OA
ATOM     10  H   UNL     1      52.090   9.184  17.092  1.00  0.00    +0.297 HD
ENDBRANCH   7   9
ENDBRANCH   1   7
BRANCH   6  11
ATOM     11  O   UNL     1      52.295  10.493  14.853  1.00  0.00    -0.507 OA
ATOM     12  H   UNL     1      53.065  10.496  14.255  1.00  0.00    +0.293 HD
ENDBRANCH   6  11
TORSDOF 3
ENDMDL
MODEL 9
REMARK minimizedAffinity -4.02834988
REMARK minimizedRMSD -1
REMARK SMILES O=C(O)c1ccccc1O
REMARK SMILES IDX 4 1 5 2 6 3 7 4 8 5 9 6 2 7 1 8 3 9 10 11
REMARK H PARENT 3 10 10 12
ROOT
ATOM      1  C   UNL     1      50.475   9.215  15.389  1.00  0.00    +0.101 A 
ATOM      2  C   UNL     1      50.538   9.674  16.714  1.00  0.00    +0.019 A 
ATOM      3  C   UNL     1      49.410   9.622  17.533  1.00  0.00    +0.001 A 
ATOM      4  C   UNL     1      48.218   9.097  17.041  1.00  0.00    +0.004 A 
ATOM      5  C   UNL     1      48.143   8.627  15.729  1.00  0.00    +0.047 A 
ATOM      6  C   UNL     1      49.269   8.693  14.907  1.00  0.00    +0.130 A 
ENDROOT
BRANCH   1   7
ATOM      7  C   UNL     1      51.718   9.301  14.575  1.00  0.00    +0.339 C 
ATOM      8  O   UNL     1      52.199   8.338  14.001  1.00  0.00    -0.246 OA
BRANCH   7   9
ATOM      9  O   UNL     1      52.307  10.518  14.584  1.00  0.00    -0.478 OA
ATOM     10  H   UNL     1      51.739  11.197  15.008  1.00  0.00    +0.297 HD
ENDBRANCH   7   9
ENDBRANCH   1   7
BRANCH   6  11
ATOM     11  O   UNL     1      49.182   8.254  13.611  1.00  0.00    -0.507 OA
ATOM     12  H   UNL     1      48.372   7.718  13.522  1.00  0.00    +0.293 HD
ENDBRANCH   6  11
TORSDOF 3
ENDMDL
