MODEL 1
REMARK minimizedAffinity -4.13314104
REMARK minimizedRMSD -1
REMARK SMILES O=C(O)[C@@H](O)[C@@H](O)C(=O)O
REMARK SMILES IDX 4 1 2 2 1 3 3 4 5 6 6 8 7 9 8 11 9 12 10 13
REMARK H PARENT 3 5 5 7 7 10 10 14
ROOT
ATOM      1  C   UNL     1      46.421  16.644   6.495  1.00  0.00    +0.264 C 
ENDROOT
BRANCH   1   2
ATOM      2  C   UNL     1      46.511  17.806   7.479  1.00  0.00    +0.335 C 
ATOM      3  O   UNL     1      45.884  17.889   8.521  1.00  0.00    -0.249 OA
BRANCH   2   4
ATOM      4  O   UNL     1      47.349  18.775   7.030  1.00  0.00    -0.479 OA
ATOM      5  H   UNL     1      47.751  18.507   6.173  1.00  0.00    +0.296 HD
ENDBRANCH   2   4
ENDBRANCH   1   2
BRANCH   1   6
ATOM      6  O   UNL     1      45.983  17.092   5.202  1.00  0.00    -0.379 OA
ATOM      7  H   UNL     1      46.699  17.667   4.844  1.00  0.00    +0.211 HD
ENDBRANCH   1   6
BRANCH   1   8
ATOM      8  C   UNL     1      47.738  15.865   6.429  1.00  0.00    +0.264 C 
BRANCH   8   9
ATOM      9  O   UNL     1      47.498  14.450   6.481  1.00  0.00    -0.379 OA
ATOM     10  H   UNL     1      46.754  14.265   5.872  1.00  0.00    +0.211 HD
ENDBRANCH   8   9
BRANCH   8  11
ATOM     11  C   UNL     1      48.488  16.147   5.135  1.00  0.00    +0.335 C 
ATOM     12  O   UNL     1      48.621  15.337   4.227  1.00  0.00    -0.249 OA
BRANCH  11  13
ATOM     13  O   UNL     1      49.083  17.361   5.139  1.00  0.00    -0.479 OA
ATOM     14  H   UNL     1      48.970  17.801   6.010  1.00  0.00    +0.296 HD
ENDBRANCH  11  13
ENDBRANCH   8  11
ENDBRANCH   1   8
TORSDOF 7
ENDMDL
MODEL 2
REMARK minimizedAffinity -3.96343756
REMARK minimizedRMSD -1
REMARK SMILES O=C(O)[C@@H](O)[C@@H](O)C(=O)O
REMARK SMILES IDX 4 1 2 2 1 3 3 4 5 6 6 8 7 9 8 11 9 12 10 13
REMARK H PARENT 3 5 5 7 7 10 10 14
ROOT
ATOM      1  C   UNL     1      52.003   8.292  13.789  1.00  0.00    +0.264 C 
ENDROOT
BRANCH   1   2
ATOM      2  C   UNL     1      51.584   9.392  14.758  1.00  0.00    +0.335 C 
ATOM      3  O   UNL     1      50.686   9.295  15.579  1.00  0.00    -0.249 OA
BRANCH   2   4
ATOM      4  O   UNL     1      52.305  10.525  14.569  1.00  0.00    -0.479 OA
ATOM      5  H   UNL     1      52.976  10.388  13.862  1.00  0.00    +0.296 HD
ENDBRANCH   2   4
ENDBRANCH   1   2
BRANCH   1   6
ATOM      6  O   UNL     1      51.914   6.997  14.405  1.00  0.00    -0.379 OA
ATOM      7  H   UNL     1      50.958   6.829  14.574  1.00  0.00    +0.211 HD
ENDBRANCH   1   6
BRANCH   1   8
ATOM      8  C   UNL     1      51.215   8.373  12.478  1.00  0.00    +0.264 C 
BRANCH   8   9
ATOM      9  O   UNL     1      50.565   9.647  12.351  1.00  0.00    -0.379 OA
ATOM     10  H   UNL     1      51.221  10.328  12.605  1.00  0.00    +0.211 HD
ENDBRANCH   8   9
BRANCH   8  11
ATOM     11  C   UNL     1      52.125   8.209  11.269  1.00  0.00    +0.335 C 
ATOM     12  O   UNL     1      51.903   7.445  10.339  1.00  0.00    -0.249 OA
BRANCH  11  13
ATOM     13  O   UNL     1      53.264   8.930  11.382  1.00  0.00    -0.479 OA
ATOM     14  H   UNL     1      53.313   9.369  12.259  1.00  0.00    +0.296 HD
ENDBRANCH  11  13
ENDBRANCH   8  11
ENDBRANCH   1   8
TORSDOF 7
ENDMDL
MODEL 3
REMARK minimizedAffinity -3.88313985
REMARK minimizedRMSD -1
REMARK SMILES O=C(O)[C@@H](O)[C@@H](O)C(=O)O
REMARK SMILES IDX 4 1 2 2 1 3 3 4 5 6 6 8 7 9 8 11 9 12 10 13
REMARK H PARENT 3 5 5 7 7 10 10 14
ROOT
ATOM      1  C   UNL     1      50.709   9.155  13.261  1.00  0.00    +0.264 C 
ENDROOT
BRANCH   1   2
ATOM      2  C   UNL     1      51.338   8.571  12.000  1.00  0.00    +0.335 C 
ATOM      3  O   UNL     1      50.774   7.817  11.224  1.00  0.00    -0.249 OA
BRANCH   2   4
ATOM      4  O   UNL     1      52.631   8.957  11.863  1.00  0.00    -0.479 OA
ATOM      5  H   UNL     1      52.885   9.564  12.596  1.00  0.00    +0.296 HD
ENDBRANCH   2   4
ENDBRANCH   1   2
BRANCH   1   6
ATOM      6  O   UNL     1      49.525   8.429  13.633  1.00  0.00    -0.379 OA
ATOM      7  H   UNL     1      49.818   7.526  13.896  1.00  0.00    +0.211 HD
ENDBRANCH   1   6
BRANCH   1   8
ATOM      8  C   UNL     1      51.725   9.242  14.403  1.00  0.00    +0.264 C 
BRANCH   8   9
ATOM      9  O   UNL     1      52.244  10.577  14.525  1.00  0.00    -0.379 OA
ATOM     10  H   UNL     1      51.479  11.185  14.462  1.00  0.00    +0.211 HD
ENDBRANCH   8   9
BRANCH   8  11
ATOM     11  C   UNL     1      51.095   8.881  15.740  1.00  0.00    +0.335 C 
ATOM     12  O   UNL     1      50.440   9.656  16.424  1.00  0.00    -0.249 OA
BRANCH  11  13
ATOM     13  O   UNL     1      51.424   7.632  16.143  1.00  0.00    -0.479 OA
ATOM     14  H   UNL     1      52.064   7.223  15.521  1.00  0.00    +0.296 HD
ENDBRANCH  11  13
ENDBRANCH   8  11
ENDBRANCH   1   8
TORSDOF 7
ENDMDL
MODEL 4
REMARK minimizedAffinity -3.87274957
REMARK minimizedRMSD -1
REMARK SMILES O=C(O)[C@@H](O)[C@@H](O)C(=O)O
REMARK SMILES IDX 4 1 2 2 1 3 3 4 5 6 6 8 7 9 8 11 9 12 10 13
REMARK H PARENT 3 5 5 7 7 10 10 14
ROOT
ATOM      1  C   UNL     1      47.432  17.560   7.331  1.00  0.00    +0.264 C 
ENDROOT
BRANCH   1   2
ATOM      2  C   UNL     1      47.975  16.497   6.381  1.00  0.00    +0.335 C 
ATOM      3  O   UNL     1      47.988  15.299   6.609  1.00  0.00    -0.249 OA
BRANCH   2   4
ATOM      4  O   UNL     1      48.492  17.052   5.256  1.00  0.00    -0.479 OA
ATOM      5  H   UNL     1      48.377  18.029   5.274  1.00  0.00    +0.296 HD
ENDBRANCH   2   4
ENDBRANCH   1   2
BRANCH   1   6
ATOM      6  O   UNL     1      47.791  18.880   6.890  1.00  0.00    -0.379 OA
ATOM      7  H   UNL     1      47.314  19.036   6.042  1.00  0.00    +0.211 HD
ENDBRANCH   1   6
BRANCH   1   8
ATOM      8  C   UNL     1      45.923  17.403   7.539  1.00  0.00    +0.264 C 
BRANCH   8   9
ATOM      9  O   UNL     1      45.463  18.255   8.601  1.00  0.00    -0.379 OA
ATOM     10  H   UNL     1      45.881  19.130   8.465  1.00  0.00    +0.211 HD
ENDBRANCH   8   9
BRANCH   8  11
ATOM     11  C   UNL     1      45.144  17.784   6.288  1.00  0.00    +0.335 C 
ATOM     12  O   UNL     1      44.617  16.978   5.534  1.00  0.00    -0.249 OA
BRANCH  11  13
ATOM     13  O   UNL     1      45.184  19.114   6.043  1.00  0.00    -0.479 OA
ATOM     14  H   UNL     1      45.768  19.570   6.688  1.00  0.00    +0.296 HD
ENDBRANCH  11  13
ENDBRANCH   8  11
ENDBRANCH   1   8
TORSDOF 7
ENDMDL
MODEL 5
REMARK minimizedAffinity -3.85920906
REMARK minimizedRMSD -1
REMARK SMILES O=C(O)[C@@H](O)[C@@H](O)C(=O)O
REMARK SMILES IDX 4 1 2 2 1 3 3 4 5 6 6 8 7 9 8 11 9 12 10 13
REMARK H PARENT 3 5 5 7 7 10 10 14
ROOT
ATOM      1  C   UNL     1      51.587   8.445  11.997  1.00  0.00    +0.264 C 
ENDROOT
BRANCH   1   2
ATOM      2  C   UNL     1      50.789   8.308  10.704  1.00  0.00    +0.335 C 
ATOM      3  O   UNL     1      50.762   7.311  10.003  1.00  0.00    -0.249 OA
BRANCH   2   4
ATOM      4  O   UNL     1      50.139   9.458  10.396  1.00  0.00    -0.479 OA
ATOM      5  H   UNL     1      50.294  10.134  11.094  1.00  0.00    +0.296 HD
ENDBRANCH   2   4
ENDBRANCH   1   2
BRANCH   1   6
ATOM      6  O   UNL     1      52.904   8.962  11.741  1.00  0.00    -0.379 OA
ATOM      7  H   UNL     1      52.787   9.887  11.421  1.00  0.00    +0.211 HD
ENDBRANCH   1   6
BRANCH   1   8
ATOM      8  C   UNL     1      50.826   9.270  13.038  1.00  0.00    +0.264 C 
BRANCH   8   9
ATOM      9  O   UNL     1      49.544   8.685  13.317  1.00  0.00    -0.379 OA
ATOM     10  H   UNL     1      49.688   7.722  13.421  1.00  0.00    +0.211 HD
ENDBRANCH   8   9
BRANCH   8  11
ATOM     11  C   UNL     1      51.583   9.342  14.356  1.00  0.00    +0.335 C 
ATOM     12  O   UNL     1      51.481   8.516  15.254  1.00  0.00    -0.249 OA
BRANCH  11  13
ATOM     13  O   UNL     1      52.309  10.477  14.471  1.00  0.00    -0.479 OA
ATOM     14  H   UNL     1      52.152  11.070  13.704  1.00  0.00    +0.296 HD
ENDBRANCH  11  13
ENDBRANCH   8  11
ENDBRANCH   1   8
TORSDOF 7
ENDMDL
MODEL 6
REMARK minimizedAffinity -3.78781199
REMARK minimizedRMSD -1
REMARK SMILES O=C(O)[C@@H](O)[C@@H](O)C(=O)O
REMARK SMILES IDX 4 1 2 2 1 3 3 4 5 6 6 8 7 9 8 11 9 12 10 13
REMARK H PARENT 3 5 5 7 7 10 10 14
ROOT
ATOM      1  C   UNL     1      51.402   9.369  14.409  1.00  0.00    +0.264 C 
ENDROOT
BRANCH   1   2
ATOM      2  C   UNL     1      50.632   9.189  15.714  1.00  0.00    +0.335 C 
ATOM      3  O   UNL     1      49.542   8.651  15.813  1.00  0.00    -0.249 OA
BRANCH   2   4
ATOM      4  O   UNL     1      51.291   9.744  16.762  1.00  0.00    -0.479 OA
ATOM      5  H   UNL     1      52.150  10.122  16.463  1.00  0.00    +0.296 HD
ENDBRANCH   2   4
ENDBRANCH   1   2
BRANCH   1   6
ATOM      6  O   UNL     1      52.311  10.480  14.494  1.00  0.00    -0.379 OA
ATOM      7  H   UNL     1      52.997  10.234  15.156  1.00  0.00    +0.211 HD
ENDBRANCH   1   6
BRANCH   1   8
ATOM      8  C   UNL     1      52.099   8.073  13.988  1.00  0.00    +0.264 C 
BRANCH   8   9
ATOM      9  O   UNL     1      51.416   6.928  14.524  1.00  0.00    -0.379 OA
ATOM     10  H   UNL     1      50.459   7.074  14.378  1.00  0.00    +0.211 HD
ENDBRANCH   8   9
BRANCH   8  11
ATOM     11  C   UNL     1      52.119   7.916  12.475  1.00  0.00    +0.335 C 
ATOM     12  O   UNL     1      51.757   6.908  11.882  1.00  0.00    -0.249 OA
BRANCH  11  13
ATOM     13  O   UNL     1      52.681   8.979  11.855  1.00  0.00    -0.479 OA
ATOM     14  H   UNL     1      53.030   9.621  12.512  1.00  0.00    +0.296 HD
ENDBRANCH  11  13
ENDBRANCH   8  11
ENDBRANCH   1   8
TORSDOF 7
ENDMDL
MODEL 7
REMARK minimizedAffinity -3.77529049
REMARK minimizedRMSD -1
REMARK SMILES O=C(O)[C@@H](O)[C@@H](O)C(=O)O
REMARK SMILES IDX 4 1 2 2 1 3 3 4 5 6 6 8 7 9 8 11 9 12 10 13
REMARK H PARENT 3 5 5 7 7 10 10 14
ROOT
ATOM      1  C   UNL     1      51.784   9.167  14.756  1.00  0.00    +0.264 C 
ENDROOT
BRANCH   1   2
ATOM      2  C   UNL     1      52.037   8.281  13.541  1.00  0.00    +0.335 C 
ATOM      3  O   UNL     1      52.067   7.062  13.560  1.00  0.00    -0.249 OA
BRANCH   2   4
ATOM      4  O   UNL     1      52.274   9.019  12.427  1.00  0.00    -0.479 OA
ATOM      5  H   UNL     1      52.200   9.979  12.632  1.00  0.00    +0.296 HD
ENDBRANCH   2   4
ENDBRANCH   1   2
BRANCH   1   6
ATOM      6  O   UNL     1      52.215  10.517  14.511  1.00  0.00    -0.379 OA
ATOM      7  H   UNL     1      51.625  10.880  13.811  1.00  0.00    +0.211 HD
ENDBRANCH   1   6
BRANCH   1   8
ATOM      8  C   UNL     1      50.324   9.093  15.208  1.00  0.00    +0.264 C 
BRANCH   8   9
ATOM      9  O   UNL     1      49.845   7.738  15.168  1.00  0.00    -0.379 OA
ATOM     10  H   UNL     1      50.542   7.179  15.568  1.00  0.00    +0.211 HD
ENDBRANCH   8   9
BRANCH   8  11
ATOM     11  C   UNL     1      50.156   9.586  16.638  1.00  0.00    +0.335 C 
ATOM     12  O   UNL     1      49.084   9.905  17.135  1.00  0.00    -0.249 OA
BRANCH  11  13
ATOM     13  O   UNL     1      51.340   9.732  17.274  1.00  0.00    -0.479 OA
ATOM     14  H   UNL     1      52.088   9.555  16.662  1.00  0.00    +0.296 HD
ENDBRANCH  11  13
ENDBRANCH   8  11
ENDBRANCH   1   8
TORSDOF 7
ENDMDL
MODEL 8
REMARK minimizedAffinity -3.68952513
REMARK minimizedRMSD -1
REMARK SMILES O=C(O)[C@@H](O)[C@@H](O)C(=O)O
REMARK SMILES IDX 4 1 2 2 1 3 3 4 5 6 6 8 7 9 8 11 9 12 10 13
REMARK H PARENT 3 5 5 7 7 10 10 14
ROOT
ATOM      1  C   UNL     1      47.321  17.387   7.149  1.00  0.00    +0.264 C 
ENDROOT
BRANCH   1   2
ATOM      2  C   UNL     1      48.136  16.493   6.221  1.00  0.00    +0.335 C 
ATOM      3  O   UNL     1      48.365  15.311   6.413  1.00  0.00    -0.249 OA
BRANCH   2   4
ATOM      4  O   UNL     1      48.624  17.188   5.162  1.00  0.00    -0.479 OA
ATOM      5  H   UNL     1      48.319  18.123   5.199  1.00  0.00    +0.296 HD
ENDBRANCH   2   4
ENDBRANCH   1   2
BRANCH   1   6
ATOM      6  O   UNL     1      47.672  18.771   6.977  1.00  0.00    -0.379 OA
ATOM      7  H   UNL     1      47.384  19.025   6.069  1.00  0.00    +0.211 HD
ENDBRANCH   1   6
BRANCH   1   8
ATOM      8  C   UNL     1      45.819  17.140   6.985  1.00  0.00    +0.264 C 
BRANCH   8   9
ATOM      9  O   UNL     1      45.552  15.747   6.759  1.00  0.00    -0.379 OA
ATOM     10  H   UNL     1      46.093  15.245   7.403  1.00  0.00    +0.211 HD
ENDBRANCH   8   9
BRANCH   8  11
ATOM     11  C   UNL     1      45.046  17.549   8.231  1.00  0.00    +0.335 C 
ATOM     12  O   UNL     1      45.340  18.502   8.941  1.00  0.00    -0.249 OA
BRANCH  11  13
ATOM     13  O   UNL     1      44.055  16.679   8.529  1.00  0.00    -0.479 OA
ATOM     14  H   UNL     1      44.069  15.911   7.917  1.00  0.00    +0.296 HD
ENDBRANCH  11  13
ENDBRANCH   8  11
ENDBRANCH   1   8
TORSDOF 7
ENDMDL
MODEL 9
REMARK minimizedAffinity -3.66344213
REMARK minimizedRMSD -1
REMARK SMILES O=C(O)[C@@H](O)[C@@H](O)C(=O)O
REMARK SMILES IDX 4 1 2 2 1 3 3 4 5 6 6 8 7 9 8 11 9 12 10 13
REMARK H PARENT 3 5 5 7 7 10 10 14
ROOT
ATOM      1  C   UNL     1      60.874  11.857   8.099  1.00  0.00    +0.264 C 
ENDROOT
BRANCH   1   2
ATOM      2  C   UNL     1      60.589  11.597   6.623  1.00  0.00    +0.335 C 
ATOM      3  O   UNL     1      61.418  11.233   5.805  1.00  0.00    -0.249 OA
BRANCH   2   4
ATOM      4  O   UNL     1      59.297  11.867   6.310  1.00  0.00    -0.479 OA
ATOM      5  H   UNL     1      58.803  12.145   7.114  1.00  0.00    +0.296 HD
ENDBRANCH   2   4
ENDBRANCH   1   2
BRANCH   1   6
ATOM      6  O   UNL     1      59.731  12.432   8.753  1.00  0.00    -0.379 OA
ATOM      7  H   UNL     1      59.027  11.743   8.752  1.00  0.00    +0.211 HD
ENDBRANCH   1   6
BRANCH   1   8
ATOM      8  C   UNL     1      61.375  10.592   8.801  1.00  0.00    +0.264 C 
BRANCH   8   9
ATOM      9  O   UNL     1      62.574  10.862   9.545  1.00  0.00    -0.379 OA
ATOM     10  H   UNL     1      62.427  11.701  10.028  1.00  0.00    +0.211 HD
ENDBRANCH   8   9
BRANCH   8  11
ATOM     11  C   UNL     1      60.346  10.057   9.787  1.00  0.00    +0.335 C 
ATOM     12  O   UNL     1      59.412   9.329   9.480  1.00  0.00    -0.249 OA
BRANCH  11  13
ATOM     13  O   UNL     1      60.518  10.558  11.032  1.00  0.00    -0.479 OA
ATOM     14  H   UNL     1      61.237  11.226  11.042  1.00  0.00    +0.296 HD
ENDBRANCH  11  13
ENDBRANCH   8  11
ENDBRANCH   1   8
TORSDOF 7
ENDMDL
