MODEL 1
REMARK VINA RESULT:      -4.6      0.000      0.000
REMARK SMILES CC(=O)Oc1ccccc1C(=O)O
REMARK SMILES IDX 5 1 6 2 7 3 8 4 9 5 10 6 4 7 2 8 3 9 1 10 11 11 12 12 13 13
REMARK H PARENT 13 14
ROOT
ATOM      1  C   UNL     1      61.178  11.515   8.017  1.00  0.00    +0.145 A 
ATOM      2  C   UNL     1      61.917  12.319   7.144  1.00  0.00    +0.048 A 
ATOM      3  C   UNL     1      63.309  12.358   7.242  1.00  0.00    +0.004 A 
ATOM      4  C   UNL     1      63.963  11.621   8.227  1.00  0.00    +0.001 A 
ATOM      5  C   UNL     1      63.226  10.849   9.124  1.00  0.00    +0.019 A 
ATOM      6  C   UNL     1      61.826  10.798   9.037  1.00  0.00    +0.102 A 
ENDROOT
BRANCH   1   7
ATOM      7  O   UNL     1      59.766  11.448   7.931  1.00  0.00    -0.426 OA
BRANCH   7   8
ATOM      8  C   UNL     1      59.137  10.729   6.907  1.00  0.00    +0.308 C 
ATOM      9  O   UNL     1      58.929  11.112   5.765  1.00  0.00    -0.252 OA
ATOM     10  C   UNL     1      58.781   9.361   7.410  1.00  0.00    +0.139 C 
ENDBRANCH   7   8
ENDBRANCH   1   7
BRANCH   6  11
ATOM     11  C   UNL     1      61.125   9.956  10.041  1.00  0.00    +0.339 C 
ATOM     12  O   UNL     1      61.430   8.794  10.256  1.00  0.00    -0.246 OA
BRANCH  11  13
ATOM     13  O   UNL     1      60.179  10.602  10.753  1.00  0.00    -0.478 OA
ATOM     14  H   UNL     1      59.368  10.079  10.900  1.00  0.00    +0.297 HD
ENDBRANCH  11  13
ENDBRANCH   6  11
TORSDOF 4
ENDMDL
MODEL 2
REMARK VINA RESULT:      -4.4      1.338      3.599
REMARK SMILES CC(=O)Oc1ccccc1C(=O)O
REMARK SMILES IDX 5 1 6 2 7 3 8 4 9 5 10 6 4 7 2 8 3 9 1 10 11 11 12 12 13 13
REMARK H PARENT 13 14
ROOT
ATOM      1  C   UNL     1      59.968  11.176   7.624  1.00  0.00    +0.145 A 
ATOM      2  C   UNL     1      59.434  11.427   6.357  1.00  0.00    +0.048 A 
ATOM      3  C   UNL     1      58.503  10.544   5.806  1.00  0.00    +0.004 A 
ATOM      4  C   UNL     1      58.128   9.398   6.501  1.00  0.00    +0.001 A 
ATOM      5  C   UNL     1      58.689   9.123   7.748  1.00  0.00    +0.019 A 
ATOM      6  C   UNL     1      59.624  10.003   8.316  1.00  0.00    +0.102 A 
ENDROOT
BRANCH   1   7
ATOM      7  O   UNL     1      60.905  12.062   8.211  1.00  0.00    -0.426 OA
BRANCH   7   8
ATOM      8  C   UNL     1      62.190  12.214   7.674  1.00  0.00    +0.308 C 
ATOM      9  O   UNL     1      62.516  12.948   6.753  1.00  0.00    -0.252 OA
ATOM     10  C   UNL     1      63.151  11.355   8.443  1.00  0.00    +0.139 C 
ENDBRANCH   7   8
ENDBRANCH   1   7
BRANCH   6  11
ATOM     11  C   UNL     1      60.175   9.624   9.644  1.00  0.00    +0.339 C 
ATOM     12  O   UNL     1      60.723   8.554   9.850  1.00  0.00    -0.246 OA
BRANCH  11  13
ATOM     13  O   UNL     1      60.094  10.591  10.582  1.00  0.00    -0.478 OA
ATOM     14  H   UNL     1      59.574  11.368  10.304  1.00  0.00    +0.297 HD
ENDBRANCH  11  13
ENDBRANCH   6  11
TORSDOF 4
ENDMDL
MODEL 3
REMARK VINA RESULT:      -4.1      1.871      3.930
REMARK SMILES CC(=O)Oc1ccccc1C(=O)O
REMARK SMILES IDX 5 1 6 2 7 3 8 4 9 5 10 6 4 7 2 8 3 9 1 10 11 11 12 12 13 13
REMARK H PARENT 13 14
ROOT
ATOM      1  C   UNL     1      61.476  10.524   9.473  1.00  0.00    +0.145 A 
ATOM      2  C   UNL     1      62.358  11.454   8.914  1.00  0.00    +0.048 A 
ATOM      3  C   UNL     1      62.049  12.065   7.697  1.00  0.00    +0.004 A 
ATOM      4  C   UNL     1      60.879  11.727   7.021  1.00  0.00    +0.001 A 
ATOM      5  C   UNL     1      60.017  10.770   7.555  1.00  0.00    +0.019 A 
ATOM      6  C   UNL     1      60.313  10.150   8.780  1.00  0.00    +0.102 A 
ENDROOT
BRANCH   1   7
ATOM      7  O   UNL     1      61.760   9.900  10.711  1.00  0.00    -0.426 OA
BRANCH   7   8
ATOM      8  C   UNL     1      63.056   9.467  11.023  1.00  0.00    +0.308 C 
ATOM      9  O   UNL     1      63.846  10.010  11.781  1.00  0.00    -0.252 OA
ATOM     10  C   UNL     1      63.332   8.178  10.306  1.00  0.00    +0.139 C 
ENDBRANCH   7   8
ENDBRANCH   1   7
BRANCH   6  11
ATOM     11  C   UNL     1      59.340   9.137   9.266  1.00  0.00    +0.339 C 
ATOM     12  O   UNL     1      58.140   9.347   9.319  1.00  0.00    -0.246 OA
BRANCH  11  13
ATOM     13  O   UNL     1      59.882   7.938   9.568  1.00  0.00    -0.478 OA
ATOM     14  H   UNL     1      60.775   7.995   9.956  1.00  0.00    +0.297 HD
ENDBRANCH  11  13
ENDBRANCH   6  11
TORSDOF 4
ENDMDL
MODEL 4
REMARK VINA RESULT:      -4.0      1.716      3.276
REMARK SMILES CC(=O)Oc1ccccc1C(=O)O
REMARK SMILES IDX 5 1 6 2 7 3 8 4 9 5 10 6 4 7 2 8 3 9 1 10 11 11 12 12 13 13
REMARK H PARENT 13 14
ROOT
ATOM      1  C   UNL     1      60.262  10.442   8.607  1.00  0.00    +0.145 A 
ATOM      2  C   UNL     1      60.761   9.924   9.806  1.00  0.00    +0.048 A 
ATOM      3  C   UNL     1      62.080  10.184  10.183  1.00  0.00    +0.004 A 
ATOM      4  C   UNL     1      62.911  10.931   9.352  1.00  0.00    +0.001 A 
ATOM      5  C   UNL     1      62.430  11.415   8.137  1.00  0.00    +0.019 A 
ATOM      6  C   UNL     1      61.105  11.165   7.746  1.00  0.00    +0.102 A 
ENDROOT
BRANCH   1   7
ATOM      7  O   UNL     1      58.925  10.204   8.208  1.00  0.00    -0.426 OA
BRANCH   7   8
ATOM      8  C   UNL     1      58.296   8.982   8.480  1.00  0.00    +0.308 C 
ATOM      9  O   UNL     1      57.375   8.792   9.261  1.00  0.00    -0.252 OA
ATOM     10  C   UNL     1      58.900   7.912   7.619  1.00  0.00    +0.139 C 
ENDBRANCH   7   8
ENDBRANCH   1   7
BRANCH   6  11
ATOM     11  C   UNL     1      60.683  11.713   6.430  1.00  0.00    +0.339 C 
ATOM     12  O   UNL     1      61.441  11.803   5.479  1.00  0.00    -0.246 OA
BRANCH  11  13
ATOM     13  O   UNL     1      59.373  12.028   6.347  1.00  0.00    -0.478 OA
ATOM     14  H   UNL     1      58.777  11.327   6.670  1.00  0.00    +0.297 HD
ENDBRANCH  11  13
ENDBRANCH   6  11
TORSDOF 4
ENDMDL
MODEL 5
REMARK VINA RESULT:      -3.9      1.969      4.840
REMARK SMILES CC(=O)Oc1ccccc1C(=O)O
REMARK SMILES IDX 5 1 6 2 7 3 8 4 9 5 10 6 4 7 2 8 3 9 1 10 11 11 12 12 13 13
REMARK H PARENT 13 14
ROOT
ATOM      1  C   UNL     1      58.900   9.466   8.235  1.00  0.00    +0.145 A 
ATOM      2  C   UNL     1      58.068   8.353   8.077  1.00  0.00    +0.048 A 
ATOM      3  C   UNL     1      57.456   8.110   6.846  1.00  0.00    +0.004 A 
ATOM      4  C   UNL     1      57.646   8.991   5.783  1.00  0.00    +0.001 A 
ATOM      5  C   UNL     1      58.442  10.123   5.950  1.00  0.00    +0.019 A 
ATOM      6  C   UNL     1      59.067  10.379   7.181  1.00  0.00    +0.102 A 
ENDROOT
BRANCH   1   7
ATOM      7  O   UNL     1      59.542   9.728   9.470  1.00  0.00    -0.426 OA
BRANCH   7   8
ATOM      8  C   UNL     1      60.735   9.079   9.816  1.00  0.00    +0.308 C 
ATOM      9  O   UNL     1      61.039   7.923   9.564  1.00  0.00    -0.252 OA
ATOM     10  C   UNL     1      61.636  10.048  10.525  1.00  0.00    +0.139 C 
ENDBRANCH   7   8
ENDBRANCH   1   7
BRANCH   6  11
ATOM     11  C   UNL     1      59.889  11.614   7.268  1.00  0.00    +0.339 C 
ATOM     12  O   UNL     1      60.480  12.081   6.309  1.00  0.00    -0.246 OA
BRANCH  11  13
ATOM     13  O   UNL     1      59.863  12.222   8.472  1.00  0.00    -0.478 OA
ATOM     14  H   UNL     1      60.098  11.635   9.216  1.00  0.00    +0.297 HD
ENDBRANCH  11  13
ENDBRANCH   6  11
TORSDOF 4
ENDMDL
MODEL 6
REMARK VINA RESULT:      -3.8      2.648      4.346
REMARK SMILES CC(=O)Oc1ccccc1C(=O)O
REMARK SMILES IDX 5 1 6 2 7 3 8 4 9 5 10 6 4 7 2 8 3 9 1 10 11 11 12 12 13 13
REMARK H PARENT 13 14
ROOT
ATOM      1  C   UNL     1      60.498  11.560   7.102  1.00  0.00    +0.145 A 
ATOM      2  C   UNL     1      60.976  11.774   8.399  1.00  0.00    +0.048 A 
ATOM      3  C   UNL     1      60.591  10.918   9.433  1.00  0.00    +0.004 A 
ATOM      4  C   UNL     1      59.708   9.870   9.183  1.00  0.00    +0.001 A 
ATOM      5  C   UNL     1      59.198   9.679   7.900  1.00  0.00    +0.019 A 
ATOM      6  C   UNL     1      59.578  10.529   6.849  1.00  0.00    +0.102 A 
ENDROOT
BRANCH   1   7
ATOM      7  O   UNL     1      60.882  12.406   6.034  1.00  0.00    -0.426 OA
BRANCH   7   8
ATOM      8  C   UNL     1      62.165  12.330   5.476  1.00  0.00    +0.308 C 
ATOM      9  O   UNL     1      62.614  11.419   4.796  1.00  0.00    -0.252 OA
ATOM     10  C   UNL     1      62.922  13.584   5.804  1.00  0.00    +0.139 C 
ENDBRANCH   7   8
ENDBRANCH   1   7
BRANCH   6  11
ATOM     11  C   UNL     1      58.977  10.254   5.518  1.00  0.00    +0.339 C 
ATOM     12  O   UNL     1      57.777  10.323   5.309  1.00  0.00    -0.246 OA
BRANCH  11  13
ATOM     13  O   UNL     1      59.871  10.003   4.539  1.00  0.00    -0.478 OA
ATOM     14  H   UNL     1      60.477  10.746   4.357  1.00  0.00    +0.297 HD
ENDBRANCH  11  13
ENDBRANCH   6  11
TORSDOF 4
ENDMDL
MODEL 7
REMARK VINA RESULT:      -3.8     11.704     13.445
REMARK SMILES CC(=O)Oc1ccccc1C(=O)O
REMARK SMILES IDX 5 1 6 2 7 3 8 4 9 5 10 6 4 7 2 8 3 9 1 10 11 11 12 12 13 13
REMARK H PARENT 13 14
ROOT
ATOM      1  C   UNL     1      49.301   8.613  14.810  1.00  0.00    +0.145 A 
ATOM      2  C   UNL     1      48.133   8.559  15.577  1.00  0.00    +0.048 A 
ATOM      3  C   UNL     1      48.114   9.113  16.858  1.00  0.00    +0.004 A 
ATOM      4  C   UNL     1      49.264   9.693  17.388  1.00  0.00    +0.001 A 
ATOM      5  C   UNL     1      50.442   9.713  16.642  1.00  0.00    +0.019 A 
ATOM      6  C   UNL     1      50.475   9.162  15.350  1.00  0.00    +0.102 A 
ENDROOT
BRANCH   1   7
ATOM      7  O   UNL     1      49.343   8.069  13.504  1.00  0.00    -0.426 OA
BRANCH   7   8
ATOM      8  C   UNL     1      48.770   8.746  12.419  1.00  0.00    +0.308 C 
ATOM      9  O   UNL     1      47.578   8.883  12.189  1.00  0.00    -0.252 OA
ATOM     10  C   UNL     1      49.861   9.340  11.576  1.00  0.00    +0.139 C 
ENDBRANCH   7   8
ENDBRANCH   1   7
BRANCH   6  11
ATOM     11  C   UNL     1      51.776   9.222  14.634  1.00  0.00    +0.339 C 
ATOM     12  O   UNL     1      52.312   8.235  14.157  1.00  0.00    -0.246 OA
BRANCH  11  13
ATOM     13  O   UNL     1      52.277  10.465  14.481  1.00  0.00    -0.478 OA
ATOM     14  H   UNL     1      53.252  10.497  14.441  1.00  0.00    +0.297 HD
ENDBRANCH  11  13
ENDBRANCH   6  11
TORSDOF 4
ENDMDL
MODEL 8
REMARK VINA RESULT:      -3.8     11.425     13.447
REMARK SMILES CC(=O)Oc1ccccc1C(=O)O
REMARK SMILES IDX 5 1 6 2 7 3 8 4 9 5 10 6 4 7 2 8 3 9 1 10 11 11 12 12 13 13
REMARK H PARENT 13 14
ROOT
ATOM      1  C   UNL     1      49.135   8.597  13.973  1.00  0.00    +0.145 A 
ATOM      2  C   UNL     1      48.010   8.589  13.142  1.00  0.00    +0.048 A 
ATOM      3  C   UNL     1      48.150   8.847  11.777  1.00  0.00    +0.004 A 
ATOM      4  C   UNL     1      49.402   9.143  11.245  1.00  0.00    +0.001 A 
ATOM      5  C   UNL     1      50.519   9.192  12.077  1.00  0.00    +0.019 A 
ATOM      6  C   UNL     1      50.395   8.932  13.451  1.00  0.00    +0.102 A 
ENDROOT
BRANCH   1   7
ATOM      7  O   UNL     1      49.022   8.327  15.358  1.00  0.00    -0.426 OA
BRANCH   7   8
ATOM      8  C   UNL     1      48.507   9.285  16.242  1.00  0.00    +0.308 C 
ATOM      9  O   UNL     1      47.363   9.714  16.271  1.00  0.00    -0.252 OA
ATOM     10  C   UNL     1      49.580   9.692  17.209  1.00  0.00    +0.139 C 
ENDBRANCH   7   8
ENDBRANCH   1   7
BRANCH   6  11
ATOM     11  C   UNL     1      51.639   9.015  14.261  1.00  0.00    +0.339 C 
ATOM     12  O   UNL     1      52.196   8.031  14.718  1.00  0.00    -0.246 OA
BRANCH  11  13
ATOM     13  O   UNL     1      52.148  10.259  14.382  1.00  0.00    -0.478 OA
ATOM     14  H   UNL     1      52.179  10.586  15.301  1.00  0.00    +0.297 HD
ENDBRANCH  11  13
ENDBRANCH   6  11
TORSDOF 4
ENDMDL
MODEL 9
REMARK VINA RESULT:      -3.8     11.990     14.129
REMARK SMILES CC(=O)Oc1ccccc1C(=O)O
REMARK SMILES IDX 5 1 6 2 7 3 8 4 9 5 10 6 4 7 2 8 3 9 1 10 11 11 12 12 13 13
REMARK H PARENT 13 14
ROOT
ATOM      1  C   UNL     1      49.708   9.183  16.025  1.00  0.00    +0.145 A 
ATOM      2  C   UNL     1      48.318   9.163  16.182  1.00  0.00    +0.048 A 
ATOM      3  C   UNL     1      47.501   8.813  15.106  1.00  0.00    +0.004 A 
ATOM      4  C   UNL     1      48.063   8.516  13.867  1.00  0.00    +0.001 A 
ATOM      5  C   UNL     1      49.445   8.575  13.696  1.00  0.00    +0.019 A 
ATOM      6  C   UNL     1      50.281   8.921  14.770  1.00  0.00    +0.102 A 
ENDROOT
BRANCH   1   7
ATOM      7  O   UNL     1      50.560   9.522  17.104  1.00  0.00    -0.426 OA
BRANCH   7   8
ATOM      8  C   UNL     1      50.477   8.847  18.330  1.00  0.00    +0.308 C 
ATOM      9  O   UNL     1      50.057   9.297  19.386  1.00  0.00    -0.252 OA
ATOM     10  C   UNL     1      50.951   7.435  18.149  1.00  0.00    +0.139 C 
ENDBRANCH   7   8
ENDBRANCH   1   7
BRANCH   6  11
ATOM     11  C   UNL     1      51.740   8.966  14.492  1.00  0.00    +0.339 C 
ATOM     12  O   UNL     1      52.356   8.012  14.046  1.00  0.00    -0.246 OA
BRANCH  11  13
ATOM     13  O   UNL     1      52.313  10.171  14.695  1.00  0.00    -0.478 OA
ATOM     14  H   UNL     1      52.094  10.573  15.557  1.00  0.00    +0.297 HD
ENDBRANCH  11  13
ENDBRANCH   6  11
TORSDOF 4
ENDMDL
