MODEL 1
REMARK VINA RESULT:      -3.8      0.000      0.000
REMARK SMILES O=C(O)CC(O)(CC(=O)O)C(=O)O
REMARK SMILES IDX 5 1 4 2 2 3 1 4 3 5 6 7 7 9 8 10 9 11 10 12 11 14 12 15
REMARK SMILES IDX 13 16
REMARK H PARENT 3 6 6 8 10 13 13 17
ROOT
ATOM      1  C   UNL     1      61.135  11.096   8.595  1.00  0.00    +0.182 C 
ENDROOT
BRANCH   1   2
ATOM      2  C   UNL     1      62.388  11.719   7.966  1.00  0.00    +0.170 C 
BRANCH   2   3
ATOM      3  C   UNL     1      62.081  12.673   6.841  1.00  0.00    +0.306 C 
ATOM      4  O   UNL     1      61.186  12.476   6.031  1.00  0.00    -0.252 OA
BRANCH   3   5
ATOM      5  O   UNL     1      62.879  13.758   6.784  1.00  0.00    -0.481 OA
ATOM      6  H   UNL     1      62.425  14.623   6.675  1.00  0.00    +0.296 HD
ENDBRANCH   3   5
ENDBRANCH   2   3
ENDBRANCH   1   2
BRANCH   1   7
ATOM      7  O   UNL     1      60.043  12.026   8.703  1.00  0.00    -0.377 OA
ATOM      8  H   UNL     1      60.434  12.928   8.771  1.00  0.00    +0.212 HD
ENDBRANCH   1   7
BRANCH   1   9
ATOM      9  C   UNL     1      60.644   9.836   7.866  1.00  0.00    +0.170 C 
BRANCH   9  10
ATOM     10  C   UNL     1      59.154   9.832   7.672  1.00  0.00    +0.306 C 
ATOM     11  O   UNL     1      58.595  10.243   6.668  1.00  0.00    -0.252 OA
BRANCH  10  12
ATOM     12  O   UNL     1      58.480   9.352   8.737  1.00  0.00    -0.481 OA
ATOM     13  H   UNL     1      57.945  10.007   9.226  1.00  0.00    +0.296 HD
ENDBRANCH  10  12
ENDBRANCH   9  10
ENDBRANCH   1   9
BRANCH   1  14
ATOM     14  C   UNL     1      61.469  10.636  10.014  1.00  0.00    +0.336 C 
ATOM     15  O   UNL     1      62.596  10.312  10.370  1.00  0.00    -0.249 OA
BRANCH  14  16
ATOM     16  O   UNL     1      60.383  10.601  10.815  1.00  0.00    -0.479 OA
ATOM     17  H   UNL     1      60.005   9.686  10.780  1.00  0.00    +0.296 HD
ENDBRANCH  14  16
ENDBRANCH   1  14
TORSDOF 9
ENDMDL
MODEL 2
REMARK VINA RESULT:      -3.8      9.388     11.273
REMARK SMILES O=C(O)CC(O)(CC(=O)O)C(=O)O
REMARK SMILES IDX 5 1 4 2 2 3 1 4 3 5 6 7 7 9 8 10 9 11 10 12 11 14 12 15
REMARK SMILES IDX 13 16
REMARK H PARENT 3 6 6 8 10 13 13 17
ROOT
ATOM      1  C   UNL     1      51.101   8.793  13.198  1.00  0.00    +0.182 C 
ENDROOT
BRANCH   1   2
ATOM      2  C   UNL     1      52.284   7.951  12.705  1.00  0.00    +0.170 C 
BRANCH   2   3
ATOM      3  C   UNL     1      52.608   8.172  11.249  1.00  0.00    +0.306 C 
ATOM      4  O   UNL     1      51.983   7.638  10.344  1.00  0.00    -0.252 OA
BRANCH   3   5
ATOM      5  O   UNL     1      53.651   8.993  11.020  1.00  0.00    -0.481 OA
ATOM      6  H   UNL     1      53.717   9.364  10.111  1.00  0.00    +0.296 HD
ENDBRANCH   3   5
ENDBRANCH   2   3
ENDBRANCH   1   2
BRANCH   1   7
ATOM      7  O   UNL     1      50.773   9.874  12.307  1.00  0.00    -0.377 OA
ATOM      8  H   UNL     1      49.817  10.076  12.436  1.00  0.00    +0.212 HD
ENDBRANCH   1   7
BRANCH   1   9
ATOM      9  C   UNL     1      49.832   7.969  13.468  1.00  0.00    +0.170 C 
BRANCH   9  10
ATOM     10  C   UNL     1      48.782   8.173  12.412  1.00  0.00    +0.306 C 
ATOM     11  O   UNL     1      47.754   8.806  12.586  1.00  0.00    -0.252 OA
BRANCH  10  12
ATOM     12  O   UNL     1      49.072   7.557  11.248  1.00  0.00    -0.481 OA
ATOM     13  H   UNL     1      49.355   8.144  10.520  1.00  0.00    +0.296 HD
ENDBRANCH  10  12
ENDBRANCH   9  10
ENDBRANCH   1   9
BRANCH   1  14
ATOM     14  C   UNL     1      51.466   9.421  14.543  1.00  0.00    +0.336 C 
ATOM     15  O   UNL     1      51.055   9.000  15.618  1.00  0.00    -0.249 OA
BRANCH  14  16
ATOM     16  O   UNL     1      52.266  10.501  14.409  1.00  0.00    -0.479 OA
ATOM     17  H   UNL     1      53.045  10.384  15.009  1.00  0.00    +0.296 HD
ENDBRANCH  14  16
ENDBRANCH   1  14
TORSDOF 9
ENDMDL
MODEL 3
REMARK VINA RESULT:      -3.8      9.640     12.089
REMARK SMILES O=C(O)CC(O)(CC(=O)O)C(=O)O
REMARK SMILES IDX 5 1 4 2 2 3 1 4 3 5 6 7 7 9 8 10 9 11 10 12 11 14 12 15
REMARK SMILES IDX 13 16
REMARK H PARENT 3 6 6 8 10 13 13 17
ROOT
ATOM      1  C   UNL     1      51.099   8.404  12.502  1.00  0.00    +0.182 C 
ENDROOT
BRANCH   1   2
ATOM      2  C   UNL     1      49.996   7.339  12.490  1.00  0.00    +0.170 C 
BRANCH   2   3
ATOM      3  C   UNL     1      48.613   7.910  12.676  1.00  0.00    +0.306 C 
ATOM      4  O   UNL     1      47.819   8.036  11.755  1.00  0.00    -0.252 OA
BRANCH   3   5
ATOM      5  O   UNL     1      48.322   8.288  13.937  1.00  0.00    -0.481 OA
ATOM      6  H   UNL     1      48.005   9.213  14.048  1.00  0.00    +0.296 HD
ENDBRANCH   3   5
ENDBRANCH   2   3
ENDBRANCH   1   2
BRANCH   1   7
ATOM      7  O   UNL     1      50.591   9.739  12.329  1.00  0.00    -0.377 OA
ATOM      8  H   UNL     1      49.636   9.720  12.569  1.00  0.00    +0.212 HD
ENDBRANCH   1   7
BRANCH   1   9
ATOM      9  C   UNL     1      51.976   8.366  13.764  1.00  0.00    +0.170 C 
BRANCH   9  10
ATOM     10  C   UNL     1      51.590   9.423  14.761  1.00  0.00    +0.306 C 
ATOM     11  O   UNL     1      50.695   9.292  15.581  1.00  0.00    -0.252 OA
BRANCH  10  12
ATOM     12  O   UNL     1      52.313  10.555  14.644  1.00  0.00    -0.481 OA
ATOM     13  H   UNL     1      52.896  10.761  15.400  1.00  0.00    +0.296 HD
ENDBRANCH  10  12
ENDBRANCH   9  10
ENDBRANCH   1   9
BRANCH   1  14
ATOM     14  C   UNL     1      52.056   8.139  11.340  1.00  0.00    +0.336 C 
ATOM     15  O   UNL     1      51.855   7.288  10.481  1.00  0.00    -0.249 OA
BRANCH  14  16
ATOM     16  O   UNL     1      53.154   8.925  11.385  1.00  0.00    -0.479 OA
ATOM     17  H   UNL     1      53.887   8.406  11.801  1.00  0.00    +0.296 HD
ENDBRANCH  14  16
ENDBRANCH   1  14
TORSDOF 9
ENDMDL
MODEL 4
REMARK VINA RESULT:      -3.6      8.415     10.766
REMARK SMILES O=C(O)CC(O)(CC(=O)O)C(=O)O
REMARK SMILES IDX 5 1 4 2 2 3 1 4 3 5 6 7 7 9 8 10 9 11 10 12 11 14 12 15
REMARK SMILES IDX 13 16
REMARK H PARENT 3 6 6 8 10 13 13 17
ROOT
ATOM      1  C   UNL     1      51.988   7.904  12.349  1.00  0.00    +0.182 C 
ENDROOT
BRANCH   1   2
ATOM      2  C   UNL     1      52.245   8.106  13.847  1.00  0.00    +0.170 C 
BRANCH   2   3
ATOM      3  C   UNL     1      51.538   9.308  14.417  1.00  0.00    +0.306 C 
ATOM      4  O   UNL     1      50.371   9.278  14.784  1.00  0.00    -0.252 OA
BRANCH   3   5
ATOM      5  O   UNL     1      52.285  10.429  14.480  1.00  0.00    -0.481 OA
ATOM      6  H   UNL     1      53.237  10.326  14.256  1.00  0.00    +0.296 HD
ENDBRANCH   3   5
ENDBRANCH   2   3
ENDBRANCH   1   2
BRANCH   1   7
ATOM      7  O   UNL     1      51.472   9.082  11.705  1.00  0.00    -0.377 OA
ATOM      8  H   UNL     1      50.638   9.326  12.170  1.00  0.00    +0.212 HD
ENDBRANCH   1   7
BRANCH   1   9
ATOM      9  C   UNL     1      53.221   7.414  11.574  1.00  0.00    +0.170 C 
BRANCH   9  10
ATOM     10  C   UNL     1      53.512   8.261  10.367  1.00  0.00    +0.306 C 
ATOM     11  O   UNL     1      53.114   8.004   9.242  1.00  0.00    -0.252 OA
BRANCH  10  12
ATOM     12  O   UNL     1      54.289   9.329  10.641  1.00  0.00    -0.481 OA
ATOM     13  H   UNL     1      54.970   9.188  11.327  1.00  0.00    +0.296 HD
ENDBRANCH  10  12
ENDBRANCH   9  10
ENDBRANCH   1   9
BRANCH   1  14
ATOM     14  C   UNL     1      50.939   6.806  12.171  1.00  0.00    +0.336 C 
ATOM     15  O   UNL     1      51.204   5.678  11.773  1.00  0.00    -0.249 OA
BRANCH  14  16
ATOM     16  O   UNL     1      49.692   7.228  12.475  1.00  0.00    -0.479 OA
ATOM     17  H   UNL     1      49.274   6.552  13.066  1.00  0.00    +0.296 HD
ENDBRANCH  14  16
ENDBRANCH   1  14
TORSDOF 9
ENDMDL
MODEL 5
REMARK VINA RESULT:      -3.6      8.458     10.701
REMARK SMILES O=C(O)CC(O)(CC(=O)O)C(=O)O
REMARK SMILES IDX 5 1 4 2 2 3 1 4 3 5 6 7 7 9 8 10 9 11 10 12 11 14 12 15
REMARK SMILES IDX 13 16
REMARK H PARENT 3 6 6 8 10 13 13 17
ROOT
ATOM      1  C   UNL     1      51.825   7.947  12.446  1.00  0.00    +0.182 C 
ENDROOT
BRANCH   1   2
ATOM      2  C   UNL     1      52.116   8.276  10.977  1.00  0.00    +0.170 C 
BRANCH   2   3
ATOM      3  C   UNL     1      53.575   8.158  10.616  1.00  0.00    +0.306 C 
ATOM      4  O   UNL     1      54.097   7.096  10.309  1.00  0.00    -0.252 OA
BRANCH   3   5
ATOM      5  O   UNL     1      54.267   9.313  10.673  1.00  0.00    -0.481 OA
ATOM      6  H   UNL     1      54.138   9.931   9.919  1.00  0.00    +0.296 HD
ENDBRANCH   3   5
ENDBRANCH   2   3
ENDBRANCH   1   2
BRANCH   1   7
ATOM      7  O   UNL     1      53.019   7.752  13.223  1.00  0.00    -0.377 OA
ATOM      8  H   UNL     1      52.870   8.181  14.098  1.00  0.00    +0.212 HD
ENDBRANCH   1   7
BRANCH   1   9
ATOM      9  C   UNL     1      50.942   8.992  13.146  1.00  0.00    +0.170 C 
BRANCH   9  10
ATOM     10  C   UNL     1      51.491   9.401  14.484  1.00  0.00    +0.306 C 
ATOM     11  O   UNL     1      51.242   8.822  15.529  1.00  0.00    -0.252 OA
BRANCH  10  12
ATOM     12  O   UNL     1      52.270  10.500  14.425  1.00  0.00    -0.481 OA
ATOM     13  H   UNL     1      52.288  10.957  13.562  1.00  0.00    +0.296 HD
ENDBRANCH  10  12
ENDBRANCH   9  10
ENDBRANCH   1   9
BRANCH   1  14
ATOM     14  C   UNL     1      51.033   6.641  12.513  1.00  0.00    +0.336 C 
ATOM     15  O   UNL     1      50.010   6.505  13.175  1.00  0.00    -0.249 OA
BRANCH  14  16
ATOM     16  O   UNL     1      51.601   5.654  11.787  1.00  0.00    -0.479 OA
ATOM     17  H   UNL     1      52.402   6.025  11.339  1.00  0.00    +0.296 HD
ENDBRANCH  14  16
ENDBRANCH   1  14
TORSDOF 9
ENDMDL
MODEL 6
REMARK VINA RESULT:      -3.6     11.514     13.528
REMARK SMILES O=C(O)CC(O)(CC(=O)O)C(=O)O
REMARK SMILES IDX 5 1 4 2 2 3 1 4 3 5 6 7 7 9 8 10 9 11 10 12 11 14 12 15
REMARK SMILES IDX 13 16
REMARK H PARENT 3 6 6 8 10 13 13 17
ROOT
ATOM      1  C   UNL     1      50.905   8.790  15.455  1.00  0.00    +0.182 C 
ENDROOT
BRANCH   1   2
ATOM      2  C   UNL     1      50.634   9.858  16.522  1.00  0.00    +0.170 C 
BRANCH   2   3
ATOM      3  C   UNL     1      49.628   9.425  17.558  1.00  0.00    +0.306 C 
ATOM      4  O   UNL     1      49.794   8.448  18.275  1.00  0.00    -0.252 OA
BRANCH   3   5
ATOM      5  O   UNL     1      48.520  10.189  17.625  1.00  0.00    -0.481 OA
ATOM      6  H   UNL     1      48.015  10.145  18.468  1.00  0.00    +0.296 HD
ENDBRANCH   3   5
ENDBRANCH   2   3
ENDBRANCH   1   2
BRANCH   1   7
ATOM      7  O   UNL     1      51.694   7.693  15.948  1.00  0.00    -0.377 OA
ATOM      8  H   UNL     1      51.126   7.182  16.570  1.00  0.00    +0.212 HD
ENDBRANCH   1   7
BRANCH   1   9
ATOM      9  C   UNL     1      49.628   8.231  14.808  1.00  0.00    +0.170 C 
BRANCH   9  10
ATOM     10  C   UNL     1      49.523   6.738  14.947  1.00  0.00    +0.306 C 
ATOM     11  O   UNL     1      49.873   5.947  14.087  1.00  0.00    -0.252 OA
BRANCH  10  12
ATOM     12  O   UNL     1      48.969   6.350  16.114  1.00  0.00    -0.481 OA
ATOM     13  H   UNL     1      49.567   5.881  16.727  1.00  0.00    +0.296 HD
ENDBRANCH  10  12
ENDBRANCH   9  10
ENDBRANCH   1   9
BRANCH   1  14
ATOM     14  C   UNL     1      51.692   9.424  14.308  1.00  0.00    +0.336 C 
ATOM     15  O   UNL     1      51.787   8.920  13.196  1.00  0.00    -0.249 OA
BRANCH  14  16
ATOM     16  O   UNL     1      52.289  10.580  14.670  1.00  0.00    -0.479 OA
ATOM     17  H   UNL     1      52.031  10.781  15.604  1.00  0.00    +0.296 HD
ENDBRANCH  14  16
ENDBRANCH   1  14
TORSDOF 9
ENDMDL
MODEL 7
REMARK VINA RESULT:      -3.5     14.710     15.725
REMARK SMILES O=C(O)CC(O)(CC(=O)O)C(=O)O
REMARK SMILES IDX 5 1 4 2 2 3 1 4 3 5 6 7 7 9 8 10 9 11 10 12 11 14 12 15
REMARK SMILES IDX 13 16
REMARK H PARENT 3 6 6 8 10 13 13 17
ROOT
ATOM      1  C   UNL     1      53.631  10.937  22.182  1.00  0.00    +0.182 C 
ENDROOT
BRANCH   1   2
ATOM      2  C   UNL     1      54.468  10.652  23.435  1.00  0.00    +0.170 C 
BRANCH   2   3
ATOM      3  C   UNL     1      55.909  10.332  23.131  1.00  0.00    +0.306 C 
ATOM      4  O   UNL     1      56.818  11.128  23.319  1.00  0.00    -0.252 OA
BRANCH   3   5
ATOM      5  O   UNL     1      56.120   9.104  22.618  1.00  0.00    -0.481 OA
ATOM      6  H   UNL     1      56.932   8.642  22.924  1.00  0.00    +0.296 HD
ENDBRANCH   3   5
ENDBRANCH   2   3
ENDBRANCH   1   2
BRANCH   1   7
ATOM      7  O   UNL     1      54.433  11.114  21.001  1.00  0.00    -0.377 OA
ATOM      8  H   UNL     1      54.875  11.991  21.079  1.00  0.00    +0.212 HD
ENDBRANCH   1   7
BRANCH   1   9
ATOM      9  C   UNL     1      52.563   9.869  21.901  1.00  0.00    +0.170 C 
BRANCH   9  10
ATOM     10  C   UNL     1      52.912   9.008  20.719  1.00  0.00    +0.306 C 
ATOM     11  O   UNL     1      53.692   8.071  20.764  1.00  0.00    -0.252 OA
BRANCH  10  12
ATOM     12  O   UNL     1      52.297   9.392  19.581  1.00  0.00    -0.481 OA
ATOM     13  H   UNL     1      52.322  10.350  19.393  1.00  0.00    +0.296 HD
ENDBRANCH  10  12
ENDBRANCH   9  10
ENDBRANCH   1   9
BRANCH   1  14
ATOM     14  C   UNL     1      52.854  12.237  22.390  1.00  0.00    +0.336 C 
ATOM     15  O   UNL     1      52.045  12.402  23.295  1.00  0.00    -0.249 OA
BRANCH  14  16
ATOM     16  O   UNL     1      53.140  13.166  21.452  1.00  0.00    -0.479 OA
ATOM     17  H   UNL     1      53.922  13.687  21.763  1.00  0.00    +0.296 HD
ENDBRANCH  14  16
ENDBRANCH   1  14
TORSDOF 9
ENDMDL
MODEL 8
REMARK VINA RESULT:      -3.5     10.146     12.435
REMARK SMILES O=C(O)CC(O)(CC(=O)O)C(=O)O
REMARK SMILES IDX 5 1 4 2 2 3 1 4 3 5 6 7 7 9 8 10 9 11 10 12 11 14 12 15
REMARK SMILES IDX 13 16
REMARK H PARENT 3 6 6 8 10 13 13 17
ROOT
ATOM      1  C   UNL     1      50.960   8.536  14.392  1.00  0.00    +0.182 C 
ENDROOT
BRANCH   1   2
ATOM      2  C   UNL     1      49.694   7.961  15.039  1.00  0.00    +0.170 C 
BRANCH   2   3
ATOM      3  C   UNL     1      49.109   6.799  14.278  1.00  0.00    +0.306 C 
ATOM      4  O   UNL     1      49.741   5.780  14.037  1.00  0.00    -0.252 OA
BRANCH   3   5
ATOM      5  O   UNL     1      47.837   6.974  13.868  1.00  0.00    -0.481 OA
ATOM      6  H   UNL     1      47.191   7.232  14.563  1.00  0.00    +0.296 HD
ENDBRANCH   3   5
ENDBRANCH   2   3
ENDBRANCH   1   2
BRANCH   1   7
ATOM      7  O   UNL     1      52.051   7.598  14.365  1.00  0.00    -0.377 OA
ATOM      8  H   UNL     1      52.166   7.312  13.430  1.00  0.00    +0.212 HD
ENDBRANCH   1   7
BRANCH   1   9
ATOM      9  C   UNL     1      50.733   9.073  12.970  1.00  0.00    +0.170 C 
BRANCH   9  10
ATOM     10  C   UNL     1      51.596   8.383  11.952  1.00  0.00    +0.306 C 
ATOM     11  O   UNL     1      51.268   7.372  11.352  1.00  0.00    -0.252 OA
BRANCH  10  12
ATOM     12  O   UNL     1      52.797   8.974  11.784  1.00  0.00    -0.481 OA
ATOM     13  H   UNL     1      53.518   8.629  12.345  1.00  0.00    +0.296 HD
ENDBRANCH  10  12
ENDBRANCH   9  10
ENDBRANCH   1   9
BRANCH   1  14
ATOM     14  C   UNL     1      51.430   9.741  15.207  1.00  0.00    +0.336 C 
ATOM     15  O   UNL     1      51.043   9.977  16.345  1.00  0.00    -0.249 OA
BRANCH  14  16
ATOM     16  O   UNL     1      52.292  10.523  14.522  1.00  0.00    -0.479 OA
ATOM     17  H   UNL     1      51.812  10.900  13.742  1.00  0.00    +0.296 HD
ENDBRANCH  14  16
ENDBRANCH   1  14
TORSDOF 9
ENDMDL
MODEL 9
REMARK VINA RESULT:      -3.4      9.961     11.855
REMARK SMILES O=C(O)CC(O)(CC(=O)O)C(=O)O
REMARK SMILES IDX 5 1 4 2 2 3 1 4 3 5 6 7 7 9 8 10 9 11 10 12 11 14 12 15
REMARK SMILES IDX 13 16
REMARK H PARENT 3 6 6 8 10 13 13 17
ROOT
ATOM      1  C   UNL     1      50.899   8.570  14.338  1.00  0.00    +0.182 C 
ENDROOT
BRANCH   1   2
ATOM      2  C   UNL     1      50.674   9.038  12.896  1.00  0.00    +0.170 C 
BRANCH   2   3
ATOM      3  C   UNL     1      51.595   8.377  11.903  1.00  0.00    +0.306 C 
ATOM      4  O   UNL     1      51.288   7.367  11.285  1.00  0.00    -0.252 OA
BRANCH   3   5
ATOM      5  O   UNL     1      52.793   8.976  11.756  1.00  0.00    -0.481 OA
ATOM      6  H   UNL     1      52.901   9.843  12.209  1.00  0.00    +0.296 HD
ENDBRANCH   3   5
ENDBRANCH   2   3
ENDBRANCH   1   2
BRANCH   1   7
ATOM      7  O   UNL     1      49.691   8.114  14.974  1.00  0.00    -0.377 OA
ATOM      8  H   UNL     1      49.708   8.444  15.902  1.00  0.00    +0.212 HD
ENDBRANCH   1   7
BRANCH   1   9
ATOM      9  C   UNL     1      51.971   7.477  14.469  1.00  0.00    +0.170 C 
BRANCH   9  10
ATOM     10  C   UNL     1      51.648   6.485  15.551  1.00  0.00    +0.306 C 
ATOM     11  O   UNL     1      51.143   5.393  15.346  1.00  0.00    -0.252 OA
BRANCH  10  12
ATOM     12  O   UNL     1      51.946   6.932  16.789  1.00  0.00    -0.481 OA
ATOM     13  H   UNL     1      52.045   7.900  16.873  1.00  0.00    +0.296 HD
ENDBRANCH  10  12
ENDBRANCH   9  10
ENDBRANCH   1   9
BRANCH   1  14
ATOM     14  C   UNL     1      51.419   9.745  15.165  1.00  0.00    +0.336 C 
ATOM     15  O   UNL     1      51.079   9.959  16.323  1.00  0.00    -0.249 OA
BRANCH  14  16
ATOM     16  O   UNL     1      52.269  10.531  14.469  1.00  0.00    -0.479 OA
ATOM     17  H   UNL     1      52.099  10.388  13.504  1.00  0.00    +0.296 HD
ENDBRANCH  14  16
ENDBRANCH   1  14
TORSDOF 9
ENDMDL
