MODEL 1
REMARK VINA RESULT:      -3.3      0.000      0.000
REMARK SMILES O=C(O)CN(CCN(CC(=O)O)CC(=O)O)CC(=O)O
REMARK SMILES IDX 6 1 5 2 4 3 2 4 1 5 3 6 17 8 18 9 19 10 20 11 7 13 8 14 9 15
REMARK SMILES IDX 10 16 11 17 12 18 13 20 14 21 15 22 16 23
REMARK H PARENT 3 7 20 12 12 19 16 24
ROOT
ATOM      1  C   UNL     1      50.849   6.288  12.806  1.00  0.00    +0.101 C 
ENDROOT
BRANCH   1   2
ATOM      2  N   UNL     1      51.909   7.312  13.039  1.00  0.00    -0.281 NA
BRANCH   2   3
ATOM      3  C   UNL     1      51.885   7.643  14.494  1.00  0.00    +0.208 C 
BRANCH   3   4
ATOM      4  C   UNL     1      51.657   9.128  14.728  1.00  0.00    +0.317 C 
ATOM      5  O   UNL     1      51.066   9.578  15.700  1.00  0.00    -0.251 OA
BRANCH   4   6
ATOM      6  O   UNL     1      52.263   9.906  13.805  1.00  0.00    -0.480 OA
ATOM      7  H   UNL     1      52.053  10.851  13.981  1.00  0.00    +0.296 HD
ENDBRANCH   4   6
ENDBRANCH   3   4
ENDBRANCH   2   3
BRANCH   2   8
ATOM      8  C   UNL     1      53.250   6.865  12.566  1.00  0.00    +0.208 C 
BRANCH   8   9
ATOM      9  C   UNL     1      53.798   7.642  11.375  1.00  0.00    +0.317 C 
ATOM     10  O   UNL     1      54.730   7.245  10.687  1.00  0.00    -0.251 OA
BRANCH   9  11
ATOM     11  O   UNL     1      53.204   8.837  11.162  1.00  0.00    -0.480 OA
ATOM     12  H   UNL     1      52.919   9.339  11.954  1.00  0.00    +0.296 HD
ENDBRANCH   9  11
ENDBRANCH   8   9
ENDBRANCH   2   8
ENDBRANCH   1   2
BRANCH   1  13
ATOM     13  C   UNL     1      50.456   5.961  11.339  1.00  0.00    +0.101 C 
BRANCH  13  14
ATOM     14  N   UNL     1      50.378   7.150  10.443  1.00  0.00    -0.281 NA
BRANCH  14  15
ATOM     15  C   UNL     1      50.576   6.826   9.002  1.00  0.00    +0.208 C 
BRANCH  15  16
ATOM     16  C   UNL     1      51.751   7.547   8.338  1.00  0.00    +0.317 C 
ATOM     17  O   UNL     1      52.574   6.990   7.625  1.00  0.00    -0.251 OA
BRANCH  16  18
ATOM     18  O   UNL     1      51.803   8.871   8.594  1.00  0.00    -0.480 OA
ATOM     19  H   UNL     1      51.488   9.153   9.479  1.00  0.00    +0.296 HD
ENDBRANCH  16  18
ENDBRANCH  15  16
ENDBRANCH  14  15
BRANCH  14  20
ATOM     20  C   UNL     1      49.095   7.858  10.678  1.00  0.00    +0.208 C 
BRANCH  20  21
ATOM     21  C   UNL     1      49.340   9.348  10.888  1.00  0.00    +0.317 C 
ATOM     22  O   UNL     1      48.585  10.225  10.496  1.00  0.00    -0.251 OA
BRANCH  21  23
ATOM     23  O   UNL     1      50.555   9.613  11.424  1.00  0.00    -0.480 OA
ATOM     24  H   UNL     1      50.548   9.461  12.394  1.00  0.00    +0.296 HD
ENDBRANCH  21  23
ENDBRANCH  20  21
ENDBRANCH  14  20
ENDBRANCH  13  14
ENDBRANCH   1  13
TORSDOF 15
ENDMDL
MODEL 2
REMARK VINA RESULT:      -3.3      1.985      5.512
REMARK SMILES O=C(O)CN(CCN(CC(=O)O)CC(=O)O)CC(=O)O
REMARK SMILES IDX 6 1 5 2 4 3 2 4 1 5 3 6 17 8 18 9 19 10 20 11 7 13 8 14 9 15
REMARK SMILES IDX 10 16 11 17 12 18 13 20 14 21 15 22 16 23
REMARK H PARENT 3 7 20 12 12 19 16 24
ROOT
ATOM      1  C   UNL     1      49.071   7.010  12.665  1.00  0.00    +0.101 C 
ENDROOT
BRANCH   1   2
ATOM      2  N   UNL     1      48.573   8.357  13.070  1.00  0.00    -0.281 NA
BRANCH   2   3
ATOM      3  C   UNL     1      48.191   9.076  11.818  1.00  0.00    +0.208 C 
BRANCH   3   4
ATOM      4  C   UNL     1      49.414   9.525  11.034  1.00  0.00    +0.317 C 
ATOM      5  O   UNL     1      49.468   9.539   9.812  1.00  0.00    -0.251 OA
BRANCH   4   6
ATOM      6  O   UNL     1      50.400  10.003  11.824  1.00  0.00    -0.480 OA
ATOM      7  H   UNL     1      50.975  10.607  11.303  1.00  0.00    +0.296 HD
ENDBRANCH   4   6
ENDBRANCH   3   4
ENDBRANCH   2   3
BRANCH   2   8
ATOM      8  C   UNL     1      47.461   8.283  14.059  1.00  0.00    +0.208 C 
BRANCH   8   9
ATOM      9  C   UNL     1      47.804   8.816  15.445  1.00  0.00    +0.317 C 
ATOM     10  O   UNL     1      47.367   9.873  15.884  1.00  0.00    -0.251 OA
BRANCH   9  11
ATOM     11  O   UNL     1      48.674   8.053  16.142  1.00  0.00    -0.480 OA
ATOM     12  H   UNL     1      48.356   7.173  16.436  1.00  0.00    +0.296 HD
ENDBRANCH   9  11
ENDBRANCH   8   9
ENDBRANCH   2   8
ENDBRANCH   1   2
BRANCH   1  13
ATOM     13  C   UNL     1      50.394   6.498  13.298  1.00  0.00    +0.101 C 
BRANCH  13  14
ATOM     14  N   UNL     1      51.467   7.528  13.399  1.00  0.00    -0.281 NA
BRANCH  14  15
ATOM     15  C   UNL     1      51.754   7.958  14.797  1.00  0.00    +0.208 C 
BRANCH  15  16
ATOM     16  C   UNL     1      51.660   9.466  15.036  1.00  0.00    +0.317 C 
ATOM     17  O   UNL     1      51.167   9.965  16.038  1.00  0.00    -0.251 OA
BRANCH  16  18
ATOM     18  O   UNL     1      52.182  10.217  14.044  1.00  0.00    -0.480 OA
ATOM     19  H   UNL     1      52.111  11.189  14.155  1.00  0.00    +0.296 HD
ENDBRANCH  16  18
ENDBRANCH  15  16
ENDBRANCH  14  15
BRANCH  14  20
ATOM     20  C   UNL     1      52.687   7.034  12.713  1.00  0.00    +0.208 C 
BRANCH  20  21
ATOM     21  C   UNL     1      52.805   7.652  11.325  1.00  0.00    +0.317 C 
ATOM     22  O   UNL     1      52.733   7.012  10.285  1.00  0.00    -0.251 OA
BRANCH  21  23
ATOM     23  O   UNL     1      53.145   8.962  11.356  1.00  0.00    -0.480 OA
ATOM     24  H   UNL     1      52.447   9.513  10.939  1.00  0.00    +0.296 HD
ENDBRANCH  21  23
ENDBRANCH  20  21
ENDBRANCH  14  20
ENDBRANCH  13  14
ENDBRANCH   1  13
TORSDOF 15
ENDMDL
MODEL 3
REMARK VINA RESULT:      -3.2      8.054     10.815
REMARK SMILES O=C(O)CN(CCN(CC(=O)O)CC(=O)O)CC(=O)O
REMARK SMILES IDX 6 1 5 2 4 3 2 4 1 5 3 6 17 8 18 9 19 10 20 11 7 13 8 14 9 15
REMARK SMILES IDX 10 16 11 17 12 18 13 20 14 21 15 22 16 23
REMARK H PARENT 3 7 20 12 12 19 16 24
ROOT
ATOM      1  C   UNL     1      61.460   8.302   6.983  1.00  0.00    +0.101 C 
ENDROOT
BRANCH   1   2
ATOM      2  N   UNL     1      60.124   8.965   6.974  1.00  0.00    -0.281 NA
BRANCH   2   3
ATOM      3  C   UNL     1      59.939   9.557   5.616  1.00  0.00    +0.208 C 
BRANCH   3   4
ATOM      4  C   UNL     1      58.842  10.609   5.607  1.00  0.00    +0.317 C 
ATOM      5  O   UNL     1      57.738  10.433   5.108  1.00  0.00    -0.251 OA
BRANCH   4   6
ATOM      6  O   UNL     1      59.173  11.723   6.296  1.00  0.00    -0.480 OA
ATOM      7  H   UNL     1      59.841  12.237   5.789  1.00  0.00    +0.296 HD
ENDBRANCH   4   6
ENDBRANCH   3   4
ENDBRANCH   2   3
BRANCH   2   8
ATOM      8  C   UNL     1      59.022   8.039   7.360  1.00  0.00    +0.208 C 
BRANCH   8   9
ATOM      9  C   UNL     1      58.202   8.490   8.562  1.00  0.00    +0.317 C 
ATOM     10  O   UNL     1      56.977   8.505   8.571  1.00  0.00    -0.251 OA
BRANCH   9  11
ATOM     11  O   UNL     1      58.934   8.923   9.612  1.00  0.00    -0.480 OA
ATOM     12  H   UNL     1      59.525   9.690   9.456  1.00  0.00    +0.296 HD
ENDBRANCH   9  11
ENDBRANCH   8   9
ENDBRANCH   2   8
ENDBRANCH   1   2
BRANCH   1  13
ATOM     13  C   UNL     1      62.547   8.858   7.945  1.00  0.00    +0.101 C 
BRANCH  13  14
ATOM     14  N   UNL     1      62.055   9.169   9.316  1.00  0.00    -0.281 NA
BRANCH  14  15
ATOM     15  C   UNL     1      62.627   8.284  10.371  1.00  0.00    +0.208 C 
BRANCH  15  16
ATOM     16  C   UNL     1      62.126   6.840  10.338  1.00  0.00    +0.317 C 
ATOM     17  O   UNL     1      62.847   5.867  10.506  1.00  0.00    -0.251 OA
BRANCH  16  18
ATOM     18  O   UNL     1      60.800   6.719  10.116  1.00  0.00    -0.480 OA
ATOM     19  H   UNL     1      60.444   7.213   9.347  1.00  0.00    +0.296 HD
ENDBRANCH  16  18
ENDBRANCH  15  16
ENDBRANCH  14  15
BRANCH  14  20
ATOM     20  C   UNL     1      62.294  10.604   9.611  1.00  0.00    +0.208 C 
BRANCH  20  21
ATOM     21  C   UNL     1      61.409  11.482   8.734  1.00  0.00    +0.317 C 
ATOM     22  O   UNL     1      61.836  12.222   7.859  1.00  0.00    -0.251 OA
BRANCH  21  23
ATOM     23  O   UNL     1      60.111  11.474   9.118  1.00  0.00    -0.480 OA
ATOM     24  H   UNL     1      59.555  11.004   8.459  1.00  0.00    +0.296 HD
ENDBRANCH  21  23
ENDBRANCH  20  21
ENDBRANCH  14  20
ENDBRANCH  13  14
ENDBRANCH   1  13
TORSDOF 15
ENDMDL
MODEL 4
REMARK VINA RESULT:      -3.2      1.800      4.536
REMARK SMILES O=C(O)CN(CCN(CC(=O)O)CC(=O)O)CC(=O)O
REMARK SMILES IDX 6 1 5 2 4 3 2 4 1 5 3 6 17 8 18 9 19 10 20 11 7 13 8 14 9 15
REMARK SMILES IDX 10 16 11 17 12 18 13 20 14 21 15 22 16 23
REMARK H PARENT 3 7 20 12 12 19 16 24
ROOT
ATOM      1  C   UNL     1      53.010   5.994  12.809  1.00  0.00    +0.101 C 
ENDROOT
BRANCH   1   2
ATOM      2  N   UNL     1      53.086   6.838  11.582  1.00  0.00    -0.281 NA
BRANCH   2   3
ATOM      3  C   UNL     1      54.522   6.890  11.175  1.00  0.00    +0.208 C 
BRANCH   3   4
ATOM      4  C   UNL     1      54.839   8.155  10.395  1.00  0.00    +0.317 C 
ATOM      5  O   UNL     1      55.642   8.200   9.473  1.00  0.00    -0.251 OA
BRANCH   4   6
ATOM      6  O   UNL     1      54.068   9.205  10.757  1.00  0.00    -0.480 OA
ATOM      7  H   UNL     1      53.751   9.078  11.680  1.00  0.00    +0.296 HD
ENDBRANCH   4   6
ENDBRANCH   3   4
ENDBRANCH   2   3
BRANCH   2   8
ATOM      8  C   UNL     1      52.191   6.352  10.495  1.00  0.00    +0.208 C 
BRANCH   8   9
ATOM      9  C   UNL     1      51.024   7.275  10.167  1.00  0.00    +0.317 C 
ATOM     10  O   UNL     1      49.905   6.868   9.881  1.00  0.00    -0.251 OA
BRANCH   9  11
ATOM     11  O   UNL     1      51.332   8.592  10.168  1.00  0.00    -0.480 OA
ATOM     12  H   UNL     1      51.379   9.036  11.041  1.00  0.00    +0.296 HD
ENDBRANCH   9  11
ENDBRANCH   8   9
ENDBRANCH   2   8
ENDBRANCH   1   2
BRANCH   1  13
ATOM     13  C   UNL     1      51.654   5.921  13.565  1.00  0.00    +0.101 C 
BRANCH  13  14
ATOM     14  N   UNL     1      50.895   7.203  13.592  1.00  0.00    -0.281 NA
BRANCH  14  15
ATOM     15  C   UNL     1      49.416   7.022  13.618  1.00  0.00    +0.208 C 
BRANCH  15  16
ATOM     16  C   UNL     1      48.610   8.272  13.261  1.00  0.00    +0.317 C 
ATOM     17  O   UNL     1      47.659   8.676  13.915  1.00  0.00    -0.251 OA
BRANCH  16  18
ATOM     18  O   UNL     1      49.044   8.913  12.155  1.00  0.00    -0.480 OA
ATOM     19  H   UNL     1      48.473   8.838  11.361  1.00  0.00    +0.296 HD
ENDBRANCH  16  18
ENDBRANCH  15  16
ENDBRANCH  14  15
BRANCH  14  20
ATOM     20  C   UNL     1      51.369   8.030  14.731  1.00  0.00    +0.208 C 
BRANCH  20  21
ATOM     21  C   UNL     1      51.905   9.366  14.231  1.00  0.00    +0.317 C 
ATOM     22  O   UNL     1      52.037  10.355  14.938  1.00  0.00    -0.251 OA
BRANCH  21  23
ATOM     23  O   UNL     1      52.083   9.396  12.889  1.00  0.00    -0.480 OA
ATOM     24  H   UNL     1      51.848   8.531  12.488  1.00  0.00    +0.296 HD
ENDBRANCH  21  23
ENDBRANCH  20  21
ENDBRANCH  14  20
ENDBRANCH  13  14
ENDBRANCH   1  13
TORSDOF 15
ENDMDL
MODEL 5
REMARK VINA RESULT:      -3.2      1.877      4.570
REMARK SMILES O=C(O)CN(CCN(CC(=O)O)CC(=O)O)CC(=O)O
REMARK SMILES IDX 6 1 5 2 4 3 2 4 1 5 3 6 17 8 18 9 19 10 20 11 7 13 8 14 9 15
REMARK SMILES IDX 10 16 11 17 12 18 13 20 14 21 15 22 16 23
REMARK H PARENT 3 7 20 12 12 19 16 24
ROOT
ATOM      1  C   UNL     1      50.650   6.568  13.067  1.00  0.00    +0.101 C 
ENDROOT
BRANCH   1   2
ATOM      2  N   UNL     1      50.753   8.000  13.472  1.00  0.00    -0.281 NA
BRANCH   2   3
ATOM      3  C   UNL     1      49.419   8.622  13.222  1.00  0.00    +0.208 C 
BRANCH   3   4
ATOM      4  C   UNL     1      49.242   9.004  11.762  1.00  0.00    +0.317 C 
ATOM      5  O   UNL     1      48.345   8.571  11.051  1.00  0.00    -0.251 OA
BRANCH   4   6
ATOM      6  O   UNL     1      50.117   9.951  11.355  1.00  0.00    -0.480 OA
ATOM      7  H   UNL     1      49.807  10.835  11.654  1.00  0.00    +0.296 HD
ENDBRANCH   4   6
ENDBRANCH   3   4
ENDBRANCH   2   3
BRANCH   2   8
ATOM      8  C   UNL     1      51.218   8.166  14.878  1.00  0.00    +0.208 C 
BRANCH   8   9
ATOM      9  C   UNL     1      51.525   9.603  15.283  1.00  0.00    +0.317 C 
ATOM     10  O   UNL     1      51.069  10.127  16.291  1.00  0.00    -0.251 OA
BRANCH   9  11
ATOM     11  O   UNL     1      52.307  10.278  14.412  1.00  0.00    -0.480 OA
ATOM     12  H   UNL     1      53.008   9.766  13.956  1.00  0.00    +0.296 HD
ENDBRANCH   9  11
ENDBRANCH   8   9
ENDBRANCH   2   8
ENDBRANCH   1   2
BRANCH   1  13
ATOM     13  C   UNL     1      51.892   5.657  13.276  1.00  0.00    +0.101 C 
BRANCH  13  14
ATOM     14  N   UNL     1      53.111   6.101  12.543  1.00  0.00    -0.281 NA
BRANCH  14  15
ATOM     15  C   UNL     1      54.159   5.047  12.433  1.00  0.00    +0.208 C 
BRANCH  15  16
ATOM     16  C   UNL     1      55.590   5.540  12.652  1.00  0.00    +0.317 C 
ATOM     17  O   UNL     1      56.156   5.523  13.737  1.00  0.00    -0.251 OA
BRANCH  16  18
ATOM     18  O   UNL     1      56.197   5.993  11.535  1.00  0.00    -0.480 OA
ATOM     19  H   UNL     1      56.624   6.874  11.602  1.00  0.00    +0.296 HD
ENDBRANCH  16  18
ENDBRANCH  15  16
ENDBRANCH  14  15
BRANCH  14  20
ATOM     20  C   UNL     1      52.719   6.631  11.213  1.00  0.00    +0.208 C 
BRANCH  20  21
ATOM     21  C   UNL     1      53.381   7.980  10.960  1.00  0.00    +0.317 C 
ATOM     22  O   UNL     1      54.418   8.123  10.328  1.00  0.00    -0.251 OA
BRANCH  21  23
ATOM     23  O   UNL     1      52.787   8.994  11.632  1.00  0.00    -0.480 OA
ATOM     24  H   UNL     1      52.702   8.777  12.586  1.00  0.00    +0.296 HD
ENDBRANCH  21  23
ENDBRANCH  20  21
ENDBRANCH  14  20
ENDBRANCH  13  14
ENDBRANCH   1  13
TORSDOF 15
ENDMDL
MODEL 6
REMARK VINA RESULT:      -3.1      9.046     11.624
REMARK SMILES O=C(O)CN(CCN(CC(=O)O)CC(=O)O)CC(=O)O
REMARK SMILES IDX 6 1 5 2 4 3 2 4 1 5 3 6 17 8 18 9 19 10 20 11 7 13 8 14 9 15
REMARK SMILES IDX 10 16 11 17 12 18 13 20 14 21 15 22 16 23
REMARK H PARENT 3 7 20 12 12 19 16 24
ROOT
ATOM      1  C   UNL     1      61.998   8.692   6.304  1.00  0.00    +0.101 C 
ENDROOT
BRANCH   1   2
ATOM      2  N   UNL     1      61.526  10.107   6.353  1.00  0.00    -0.281 NA
BRANCH   2   3
ATOM      3  C   UNL     1      62.737  10.974   6.241  1.00  0.00    +0.208 C 
BRANCH   3   4
ATOM      4  C   UNL     1      62.539  12.306   6.947  1.00  0.00    +0.317 C 
ATOM      5  O   UNL     1      62.828  13.387   6.449  1.00  0.00    -0.251 OA
BRANCH   4   6
ATOM      6  O   UNL     1      61.917  12.184   8.140  1.00  0.00    -0.480 OA
ATOM      7  H   UNL     1      62.198  12.917   8.734  1.00  0.00    +0.296 HD
ENDBRANCH   4   6
ENDBRANCH   3   4
ENDBRANCH   2   3
BRANCH   2   8
ATOM      8  C   UNL     1      60.499  10.404   5.316  1.00  0.00    +0.208 C 
BRANCH   8   9
ATOM      9  C   UNL     1      59.150  10.852   5.865  1.00  0.00    +0.317 C 
ATOM     10  O   UNL     1      58.087  10.345   5.528  1.00  0.00    -0.251 OA
BRANCH   9  11
ATOM     11  O   UNL     1      59.210  11.893   6.724  1.00  0.00    -0.480 OA
ATOM     12  H   UNL     1      58.387  12.121   7.205  1.00  0.00    +0.296 HD
ENDBRANCH   9  11
ENDBRANCH   8   9
ENDBRANCH   2   8
ENDBRANCH   1   2
BRANCH   1  13
ATOM     13  C   UNL     1      62.494   8.039   7.625  1.00  0.00    +0.101 C 
BRANCH  13  14
ATOM     14  N   UNL     1      61.907   8.629   8.861  1.00  0.00    -0.281 NA
BRANCH  14  15
ATOM     15  C   UNL     1      60.512   8.182   9.132  1.00  0.00    +0.208 C 
BRANCH  15  16
ATOM     16  C   UNL     1      59.488   9.313   9.253  1.00  0.00    +0.317 C 
ATOM     17  O   UNL     1      58.281   9.130   9.327  1.00  0.00    -0.251 OA
BRANCH  16  18
ATOM     18  O   UNL     1      60.030  10.549   9.284  1.00  0.00    -0.480 OA
ATOM     19  H   UNL     1      59.595  11.196   9.880  1.00  0.00    +0.296 HD
ENDBRANCH  16  18
ENDBRANCH  15  16
ENDBRANCH  14  15
BRANCH  14  20
ATOM     20  C   UNL     1      62.807   8.356  10.010  1.00  0.00    +0.208 C 
BRANCH  20  21
ATOM     21  C   UNL     1      63.081   9.638  10.788  1.00  0.00    +0.317 C 
ATOM     22  O   UNL     1      62.476   9.964  11.799  1.00  0.00    -0.251 OA
BRANCH  21  23
ATOM     23  O   UNL     1      63.962  10.456  10.166  1.00  0.00    -0.480 OA
ATOM     24  H   UNL     1      63.923  10.334   9.192  1.00  0.00    +0.296 HD
ENDBRANCH  21  23
ENDBRANCH  20  21
ENDBRANCH  14  20
ENDBRANCH  13  14
ENDBRANCH   1  13
TORSDOF 15
ENDMDL
MODEL 7
REMARK VINA RESULT:      -3.1      3.240      4.686
REMARK SMILES O=C(O)CN(CCN(CC(=O)O)CC(=O)O)CC(=O)O
REMARK SMILES IDX 6 1 5 2 4 3 2 4 1 5 3 6 17 8 18 9 19 10 20 11 7 13 8 14 9 15
REMARK SMILES IDX 10 16 11 17 12 18 13 20 14 21 15 22 16 23
REMARK H PARENT 3 7 20 12 12 19 16 24
ROOT
ATOM      1  C   UNL     1      48.920   7.653  13.581  1.00  0.00    +0.101 C 
ENDROOT
BRANCH   1   2
ATOM      2  N   UNL     1      49.846   8.823  13.540  1.00  0.00    -0.281 NA
BRANCH   2   3
ATOM      3  C   UNL     1      50.971   8.522  14.474  1.00  0.00    +0.208 C 
BRANCH   3   4
ATOM      4  C   UNL     1      51.415   9.762  15.233  1.00  0.00    +0.317 C 
ATOM      5  O   UNL     1      51.048  10.029  16.370  1.00  0.00    -0.251 OA
BRANCH   4   6
ATOM      6  O   UNL     1      52.337  10.488  14.564  1.00  0.00    -0.480 OA
ATOM      7  H   UNL     1      52.004  11.405  14.436  1.00  0.00    +0.296 HD
ENDBRANCH   4   6
ENDBRANCH   3   4
ENDBRANCH   2   3
BRANCH   2   8
ATOM      8  C   UNL     1      50.306   9.140  12.159  1.00  0.00    +0.208 C 
BRANCH   8   9
ATOM      9  C   UNL     1      51.526   8.353  11.696  1.00  0.00    +0.317 C 
ATOM     10  O   UNL     1      51.467   7.197  11.297  1.00  0.00    -0.251 OA
BRANCH   9  11
ATOM     11  O   UNL     1      52.698   9.017  11.806  1.00  0.00    -0.480 OA
ATOM     12  H   UNL     1      53.028   9.189  12.713  1.00  0.00    +0.296 HD
ENDBRANCH   9  11
ENDBRANCH   8   9
ENDBRANCH   2   8
ENDBRANCH   1   2
BRANCH   1  13
ATOM     13  C   UNL     1      47.664   7.681  12.667  1.00  0.00    +0.101 C 
BRANCH  13  14
ATOM     14  N   UNL     1      46.762   8.846  12.896  1.00  0.00    -0.281 NA
BRANCH  14  15
ATOM     15  C   UNL     1      45.851   9.130  11.751  1.00  0.00    +0.208 C 
BRANCH  15  16
ATOM     16  C   UNL     1      45.564  10.614  11.514  1.00  0.00    +0.317 C 
ATOM     17  O   UNL     1      44.804  11.278  12.205  1.00  0.00    -0.251 OA
BRANCH  16  18
ATOM     18  O   UNL     1      46.235  11.147  10.470  1.00  0.00    -0.480 OA
ATOM     19  H   UNL     1      46.850  11.881  10.683  1.00  0.00    +0.296 HD
ENDBRANCH  16  18
ENDBRANCH  15  16
ENDBRANCH  14  15
BRANCH  14  20
ATOM     20  C   UNL     1      46.012   8.644  14.161  1.00  0.00    +0.208 C 
BRANCH  20  21
ATOM     21  C   UNL     1      46.274   9.795  15.125  1.00  0.00    +0.317 C 
ATOM     22  O   UNL     1      47.184   9.806  15.941  1.00  0.00    -0.251 OA
BRANCH  21  23
ATOM     23  O   UNL     1      45.309  10.743  15.091  1.00  0.00    -0.480 OA
ATOM     24  H   UNL     1      45.407  11.367  15.843  1.00  0.00    +0.296 HD
ENDBRANCH  21  23
ENDBRANCH  20  21
ENDBRANCH  14  20
ENDBRANCH  13  14
ENDBRANCH   1  13
TORSDOF 15
ENDMDL
MODEL 8
REMARK VINA RESULT:      -3.0      1.798      4.345
REMARK SMILES O=C(O)CN(CCN(CC(=O)O)CC(=O)O)CC(=O)O
REMARK SMILES IDX 6 1 5 2 4 3 2 4 1 5 3 6 17 8 18 9 19 10 20 11 7 13 8 14 9 15
REMARK SMILES IDX 10 16 11 17 12 18 13 20 14 21 15 22 16 23
REMARK H PARENT 3 7 20 12 12 19 16 24
ROOT
ATOM      1  C   UNL     1      52.297   5.875  12.154  1.00  0.00    +0.101 C 
ENDROOT
BRANCH   1   2
ATOM      2  N   UNL     1      53.741   6.188  12.358  1.00  0.00    -0.281 NA
BRANCH   2   3
ATOM      3  C   UNL     1      54.427   4.899  12.673  1.00  0.00    +0.208 C 
BRANCH   3   4
ATOM      4  C   UNL     1      55.934   5.013  12.515  1.00  0.00    +0.317 C 
ATOM      5  O   UNL     1      56.556   4.533  11.576  1.00  0.00    -0.251 OA
BRANCH   4   6
ATOM      6  O   UNL     1      56.508   5.784  13.464  1.00  0.00    -0.480 OA
ATOM      7  H   UNL     1      57.012   6.513  13.036  1.00  0.00    +0.296 HD
ENDBRANCH   4   6
ENDBRANCH   3   4
ENDBRANCH   2   3
BRANCH   2   8
ATOM      8  C   UNL     1      54.344   6.897  11.195  1.00  0.00    +0.208 C 
BRANCH   8   9
ATOM      9  C   UNL     1      53.495   8.029  10.628  1.00  0.00    +0.317 C 
ATOM     10  O   UNL     1      53.165   8.096   9.451  1.00  0.00    -0.251 OA
BRANCH   9  11
ATOM     11  O   UNL     1      53.172   8.990  11.522  1.00  0.00    -0.480 OA
ATOM     12  H   UNL     1      53.673   9.831  11.471  1.00  0.00    +0.296 HD
ENDBRANCH   9  11
ENDBRANCH   8   9
ENDBRANCH   2   8
ENDBRANCH   1   2
BRANCH   1  13
ATOM     13  C   UNL     1      51.305   6.216  13.300  1.00  0.00    +0.101 C 
BRANCH  13  14
ATOM     14  N   UNL     1      51.107   7.675  13.530  1.00  0.00    -0.281 NA
BRANCH  14  15
ATOM     15  C   UNL     1      49.702   8.127  13.328  1.00  0.00    +0.208 C 
BRANCH  15  16
ATOM     16  C   UNL     1      49.453   8.886  12.024  1.00  0.00    +0.317 C 
ATOM     17  O   UNL     1      48.433   8.775  11.358  1.00  0.00    -0.251 OA
BRANCH  16  18
ATOM     18  O   UNL     1      50.458   9.711  11.664  1.00  0.00    -0.480 OA
ATOM     19  H   UNL     1      50.494   9.960  10.715  1.00  0.00    +0.296 HD
ENDBRANCH  16  18
ENDBRANCH  15  16
ENDBRANCH  14  15
BRANCH  14  20
ATOM     20  C   UNL     1      51.614   8.032  14.879  1.00  0.00    +0.208 C 
BRANCH  20  21
ATOM     21  C   UNL     1      51.688   9.546  15.036  1.00  0.00    +0.317 C 
ATOM     22  O   UNL     1      51.172  10.162  15.957  1.00  0.00    -0.251 OA
BRANCH  21  23
ATOM     23  O   UNL     1      52.258  10.161  13.972  1.00  0.00    -0.480 OA
ATOM     24  H   UNL     1      52.903   9.566  13.532  1.00  0.00    +0.296 HD
ENDBRANCH  21  23
ENDBRANCH  20  21
ENDBRANCH  14  20
ENDBRANCH  13  14
ENDBRANCH   1  13
TORSDOF 15
ENDMDL
MODEL 9
REMARK VINA RESULT:      -3.0      1.753      3.139
REMARK SMILES O=C(O)CN(CCN(CC(=O)O)CC(=O)O)CC(=O)O
REMARK SMILES IDX 6 1 5 2 4 3 2 4 1 5 3 6 17 8 18 9 19 10 20 11 7 13 8 14 9 15
REMARK SMILES IDX 10 16 11 17 12 18 13 20 14 21 15 22 16 23
REMARK H PARENT 3 7 20 12 12 19 16 24
ROOT
ATOM      1  C   UNL     1      49.872   6.556  13.337  1.00  0.00    +0.101 C 
ENDROOT
BRANCH   1   2
ATOM      2  N   UNL     1      50.010   7.954  13.840  1.00  0.00    -0.281 NA
BRANCH   2   3
ATOM      3  C   UNL     1      48.717   8.310  14.498  1.00  0.00    +0.208 C 
BRANCH   3   4
ATOM      4  C   UNL     1      48.631   7.747  15.907  1.00  0.00    +0.317 C 
ATOM      5  O   UNL     1      48.574   6.550  16.157  1.00  0.00    -0.251 OA
BRANCH   4   6
ATOM      6  O   UNL     1      48.726   8.698  16.862  1.00  0.00    -0.480 OA
ATOM      7  H   UNL     1      47.851   8.818  17.295  1.00  0.00    +0.296 HD
ENDBRANCH   4   6
ENDBRANCH   3   4
ENDBRANCH   2   3
BRANCH   2   8
ATOM      8  C   UNL     1      51.186   8.127  14.738  1.00  0.00    +0.208 C 
BRANCH   8   9
ATOM      9  C   UNL     1      51.562   9.575  15.026  1.00  0.00    +0.317 C 
ATOM     10  O   UNL     1      51.280  10.146  16.072  1.00  0.00    -0.251 OA
BRANCH   9  11
ATOM     11  O   UNL     1      52.194  10.204  14.011  1.00  0.00    -0.480 OA
ATOM     12  H   UNL     1      51.756  10.183  13.134  1.00  0.00    +0.296 HD
ENDBRANCH   9  11
ENDBRANCH   8   9
ENDBRANCH   2   8
ENDBRANCH   1   2
BRANCH   1  13
ATOM     13  C   UNL     1      50.247   6.271  11.856  1.00  0.00    +0.101 C 
BRANCH  13  14
ATOM     14  N   UNL     1      50.850   7.430  11.139  1.00  0.00    -0.281 NA
BRANCH  14  15
ATOM     15  C   UNL     1      52.113   7.099  10.422  1.00  0.00    +0.208 C 
BRANCH  15  16
ATOM     16  C   UNL     1      53.278   8.049  10.701  1.00  0.00    +0.317 C 
ATOM     17  O   UNL     1      54.346   8.007  10.107  1.00  0.00    -0.251 OA
BRANCH  16  18
ATOM     18  O   UNL     1      53.028   8.963  11.663  1.00  0.00    -0.480 OA
ATOM     19  H   UNL     1      53.678   9.694  11.743  1.00  0.00    +0.296 HD
ENDBRANCH  16  18
ENDBRANCH  15  16
ENDBRANCH  14  15
BRANCH  14  20
ATOM     20  C   UNL     1      49.838   8.024  10.230  1.00  0.00    +0.208 C 
BRANCH  20  21
ATOM     21  C   UNL     1      49.517   9.453  10.651  1.00  0.00    +0.317 C 
ATOM     22  O   UNL     1      48.714  10.171  10.071  1.00  0.00    -0.251 OA
BRANCH  21  23
ATOM     23  O   UNL     1      50.318   9.904  11.644  1.00  0.00    -0.480 OA
ATOM     24  H   UNL     1      50.280  10.884  11.705  1.00  0.00    +0.296 HD
ENDBRANCH  21  23
ENDBRANCH  20  21
ENDBRANCH  14  20
ENDBRANCH  13  14
ENDBRANCH   1  13
TORSDOF 15
ENDMDL
