MODEL 1
REMARK VINA RESULT:      -4.1      0.000      0.000
REMARK SMILES O=C(O)CN(CCOCCOCCN(CC(=O)O)CC(=O)O)CC(=O)O
REMARK SMILES IDX 9 1 8 2 7 3 6 4 5 5 4 6 2 7 1 8 3 9 23 11 24 12 25 13 26 14
REMARK SMILES IDX 10 16 11 17 12 18 13 19 14 20 15 21 16 22 17 23 18 24 19 26
REMARK SMILES IDX 20 27 21 28 22 29
REMARK H PARENT 3 10 26 15 18 25 22 30
ROOT
ATOM      1  C   UNL     1      55.711   8.158   9.813  1.00  0.00    +0.188 C 
ENDROOT
BRANCH   1   2
ATOM      2  O   UNL     1      56.422   7.592   8.697  1.00  0.00    -0.378 OA
BRANCH   2   3
ATOM      3  C   UNL     1      57.357   8.528   8.127  1.00  0.00    +0.175 C 
BRANCH   3   4
ATOM      4  C   UNL     1      58.802   8.240   8.612  1.00  0.00    +0.114 C 
BRANCH   4   5
ATOM      5  N   UNL     1      59.748   9.398   8.676  1.00  0.00    -0.280 NA
BRANCH   5   6
ATOM      6  C   UNL     1      60.987   8.926   9.397  1.00  0.00    +0.208 C 
BRANCH   6   7
ATOM      7  C   UNL     1      61.443   9.908  10.477  1.00  0.00    +0.317 C 
ATOM      8  O   UNL     1      62.571   9.968  10.933  1.00  0.00    -0.251 OA
BRANCH   7   9
ATOM      9  O   UNL     1      60.422  10.688  10.923  1.00  0.00    -0.480 OA
ATOM     10  H   UNL     1      59.999  11.112  10.145  1.00  0.00    +0.296 HD
ENDBRANCH   7   9
ENDBRANCH   6   7
ENDBRANCH   5   6
BRANCH   5  11
ATOM     11  C   UNL     1      60.107   9.944   7.333  1.00  0.00    +0.208 C 
BRANCH  11  12
ATOM     12  C   UNL     1      60.041  11.459   7.246  1.00  0.00    +0.317 C 
ATOM     13  O   UNL     1      60.308  12.108   6.246  1.00  0.00    -0.251 OA
BRANCH  12  14
ATOM     14  O   UNL     1      59.578  12.037   8.367  1.00  0.00    -0.480 OA
ATOM     15  H   UNL     1      59.991  12.921   8.530  1.00  0.00    +0.296 HD
ENDBRANCH  12  14
ENDBRANCH  11  12
ENDBRANCH   5  11
ENDBRANCH   4   5
ENDBRANCH   3   4
ENDBRANCH   2   3
ENDBRANCH   1   2
BRANCH   1  16
ATOM     16  C   UNL     1      55.348   7.047  10.807  1.00  0.00    +0.188 C 
BRANCH  16  17
ATOM     17  O   UNL     1      54.048   7.281  11.389  1.00  0.00    -0.378 OA
BRANCH  17  18
ATOM     18  C   UNL     1      53.132   7.780  10.389  1.00  0.00    +0.175 C 
BRANCH  18  19
ATOM     19  C   UNL     1      51.766   8.201  10.994  1.00  0.00    +0.114 C 
BRANCH  19  20
ATOM     20  N   UNL     1      51.635   7.960  12.457  1.00  0.00    -0.280 NA
BRANCH  20  21
ATOM     21  C   UNL     1      50.965   9.087  13.150  1.00  0.00    +0.208 C 
BRANCH  21  22
ATOM     22  C   UNL     1      51.509   9.428  14.535  1.00  0.00    +0.317 C 
ATOM     23  O   UNL     1      51.249   8.795  15.550  1.00  0.00    -0.251 OA
BRANCH  22  24
ATOM     24  O   UNL     1      52.276  10.547  14.560  1.00  0.00    -0.480 OA
ATOM     25  H   UNL     1      53.239  10.341  14.590  1.00  0.00    +0.296 HD
ENDBRANCH  22  24
ENDBRANCH  21  22
ENDBRANCH  20  21
BRANCH  20  26
ATOM     26  C   UNL     1      50.881   6.707  12.761  1.00  0.00    +0.208 C 
BRANCH  26  27
ATOM     27  C   UNL     1      51.718   5.778  13.637  1.00  0.00    +0.317 C 
ATOM     28  O   UNL     1      51.308   4.759  14.166  1.00  0.00    -0.251 OA
BRANCH  27  29
ATOM     29  O   UNL     1      52.986   6.241  13.804  1.00  0.00    -0.480 OA
ATOM     30  H   UNL     1      52.919   7.198  14.027  1.00  0.00    +0.296 HD
ENDBRANCH  27  29
ENDBRANCH  26  27
ENDBRANCH  20  26
ENDBRANCH  19  20
ENDBRANCH  18  19
ENDBRANCH  17  18
ENDBRANCH  16  17
ENDBRANCH   1  16
TORSDOF 21
ENDMDL
MODEL 2
REMARK VINA RESULT:      -4.0      1.622     10.086
REMARK SMILES O=C(O)CN(CCOCCOCCN(CC(=O)O)CC(=O)O)CC(=O)O
REMARK SMILES IDX 9 1 8 2 7 3 6 4 5 5 4 6 2 7 1 8 3 9 23 11 24 12 25 13 26 14
REMARK SMILES IDX 10 16 11 17 12 18 13 19 14 20 15 21 16 22 17 23 18 24 19 26
REMARK SMILES IDX 20 27 21 28 22 29
REMARK H PARENT 3 10 26 15 18 25 22 30
ROOT
ATOM      1  C   UNL     1      54.343   7.615   9.493  1.00  0.00    +0.188 C 
ENDROOT
BRANCH   1   2
ATOM      2  O   UNL     1      53.706   8.410  10.510  1.00  0.00    -0.378 OA
BRANCH   2   3
ATOM      3  C   UNL     1      53.129   7.592  11.546  1.00  0.00    +0.175 C 
BRANCH   3   4
ATOM      4  C   UNL     1      51.582   7.698  11.546  1.00  0.00    +0.114 C 
BRANCH   4   5
ATOM      5  N   UNL     1      50.935   8.313  12.748  1.00  0.00    -0.280 NA
BRANCH   5   6
ATOM      6  C   UNL     1      49.671   7.538  13.024  1.00  0.00    +0.208 C 
BRANCH   6   7
ATOM      7  C   UNL     1      48.448   8.446  13.161  1.00  0.00    +0.317 C 
ATOM      8  O   UNL     1      47.796   8.881  12.228  1.00  0.00    -0.251 OA
BRANCH   7   9
ATOM      9  O   UNL     1      48.192   8.768  14.457  1.00  0.00    -0.480 OA
ATOM     10  H   UNL     1      47.341   8.350  14.713  1.00  0.00    +0.296 HD
ENDBRANCH   7   9
ENDBRANCH   6   7
ENDBRANCH   5   6
BRANCH   5  11
ATOM     11  C   UNL     1      51.814   8.316  13.955  1.00  0.00    +0.208 C 
BRANCH  11  12
ATOM     12  C   UNL     1      51.558   9.477  14.901  1.00  0.00    +0.317 C 
ATOM     13  O   UNL     1      50.832   9.424  15.882  1.00  0.00    -0.251 OA
BRANCH  12  14
ATOM     14  O   UNL     1      52.276  10.573  14.605  1.00  0.00    -0.480 OA
ATOM     15  H   UNL     1      53.117  10.620  15.122  1.00  0.00    +0.296 HD
ENDBRANCH  12  14
ENDBRANCH  11  12
ENDBRANCH   5  11
ENDBRANCH   4   5
ENDBRANCH   3   4
ENDBRANCH   2   3
ENDBRANCH   1   2
BRANCH   1  16
ATOM     16  C   UNL     1      55.637   7.008  10.050  1.00  0.00    +0.188 C 
BRANCH  16  17
ATOM     17  O   UNL     1      56.720   7.149   9.107  1.00  0.00    -0.378 OA
BRANCH  17  18
ATOM     18  C   UNL     1      57.145   8.528   9.031  1.00  0.00    +0.175 C 
BRANCH  18  19
ATOM     19  C   UNL     1      58.202   8.762   7.919  1.00  0.00    +0.114 C 
BRANCH  19  20
ATOM     20  N   UNL     1      59.374   9.577   8.340  1.00  0.00    -0.280 NA
BRANCH  20  21
ATOM     21  C   UNL     1      60.197   8.884   9.361  1.00  0.00    +0.208 C 
BRANCH  21  22
ATOM     22  C   UNL     1      61.042   9.789  10.255  1.00  0.00    +0.317 C 
ATOM     23  O   UNL     1      62.256   9.700  10.372  1.00  0.00    -0.251 OA
BRANCH  22  24
ATOM     24  O   UNL     1      60.313  10.686  10.967  1.00  0.00    -0.480 OA
ATOM     25  H   UNL     1      60.314  11.582  10.556  1.00  0.00    +0.296 HD
ENDBRANCH  22  24
ENDBRANCH  21  22
ENDBRANCH  20  21
BRANCH  20  26
ATOM     26  C   UNL     1      60.257   9.939   7.191  1.00  0.00    +0.208 C 
BRANCH  26  27
ATOM     27  C   UNL     1      60.345  11.455   7.041  1.00  0.00    +0.317 C 
ATOM     28  O   UNL     1      61.257  12.147   7.461  1.00  0.00    -0.251 OA
BRANCH  27  29
ATOM     29  O   UNL     1      59.254  11.969   6.412  1.00  0.00    -0.480 OA
ATOM     30  H   UNL     1      58.909  11.270   5.811  1.00  0.00    +0.296 HD
ENDBRANCH  27  29
ENDBRANCH  26  27
ENDBRANCH  20  26
ENDBRANCH  19  20
ENDBRANCH  18  19
ENDBRANCH  17  18
ENDBRANCH  16  17
ENDBRANCH   1  16
TORSDOF 21
ENDMDL
MODEL 3
REMARK VINA RESULT:      -4.0      1.619      2.417
REMARK SMILES O=C(O)CN(CCOCCOCCN(CC(=O)O)CC(=O)O)CC(=O)O
REMARK SMILES IDX 9 1 8 2 7 3 6 4 5 5 4 6 2 7 1 8 3 9 23 11 24 12 25 13 26 14
REMARK SMILES IDX 10 16 11 17 12 18 13 19 14 20 15 21 16 22 17 23 18 24 19 26
REMARK SMILES IDX 20 27 21 28 22 29
REMARK H PARENT 3 10 26 15 18 25 22 30
ROOT
ATOM      1  C   UNL     1      55.708   7.981   9.813  1.00  0.00    +0.188 C 
ENDROOT
BRANCH   1   2
ATOM      2  O   UNL     1      56.046   7.268   8.609  1.00  0.00    -0.378 OA
BRANCH   2   3
ATOM      3  C   UNL     1      57.039   7.966   7.834  1.00  0.00    +0.175 C 
BRANCH   3   4
ATOM      4  C   UNL     1      58.421   7.936   8.538  1.00  0.00    +0.114 C 
BRANCH   4   5
ATOM      5  N   UNL     1      59.259   9.172   8.458  1.00  0.00    -0.280 NA
BRANCH   5   6
ATOM      6  C   UNL     1      60.426   8.985   9.396  1.00  0.00    +0.208 C 
BRANCH   6   7
ATOM      7  C   UNL     1      60.950  10.312   9.948  1.00  0.00    +0.317 C 
ATOM      8  O   UNL     1      61.904  10.924   9.501  1.00  0.00    -0.251 OA
BRANCH   7   9
ATOM      9  O   UNL     1      60.259  10.717  11.046  1.00  0.00    -0.480 OA
ATOM     10  H   UNL     1      60.903  11.063  11.702  1.00  0.00    +0.296 HD
ENDBRANCH   7   9
ENDBRANCH   6   7
ENDBRANCH   5   6
BRANCH   5  11
ATOM     11  C   UNL     1      59.747   9.468   7.078  1.00  0.00    +0.208 C 
BRANCH  11  12
ATOM     12  C   UNL     1      59.158  10.730   6.473  1.00  0.00    +0.317 C 
ATOM     13  O   UNL     1      59.577  11.859   6.679  1.00  0.00    -0.251 OA
BRANCH  12  14
ATOM     14  O   UNL     1      58.158  10.489   5.608  1.00  0.00    -0.480 OA
ATOM     15  H   UNL     1      57.940   9.526   5.548  1.00  0.00    +0.296 HD
ENDBRANCH  12  14
ENDBRANCH  11  12
ENDBRANCH   5  11
ENDBRANCH   4   5
ENDBRANCH   3   4
ENDBRANCH   2   3
ENDBRANCH   1   2
BRANCH   1  16
ATOM     16  C   UNL     1      55.296   6.983  10.903  1.00  0.00    +0.188 C 
BRANCH  16  17
ATOM     17  O   UNL     1      54.264   6.095  10.425  1.00  0.00    -0.378 OA
BRANCH  17  18
ATOM     18  C   UNL     1      53.051   6.276  11.188  1.00  0.00    +0.175 C 
BRANCH  18  19
ATOM     19  C   UNL     1      53.280   7.106  12.479  1.00  0.00    +0.114 C 
BRANCH  19  20
ATOM     20  N   UNL     1      52.127   7.956  12.883  1.00  0.00    -0.280 NA
BRANCH  20  21
ATOM     21  C   UNL     1      50.887   7.594  12.155  1.00  0.00    +0.208 C 
BRANCH  21  22
ATOM     22  C   UNL     1      50.294   8.692  11.275  1.00  0.00    +0.317 C 
ATOM     23  O   UNL     1      49.777   8.493  10.184  1.00  0.00    -0.251 OA
BRANCH  22  24
ATOM     24  O   UNL     1      50.440   9.940  11.787  1.00  0.00    -0.480 OA
ATOM     25  H   UNL     1      50.700  10.599  11.101  1.00  0.00    +0.296 HD
ENDBRANCH  22  24
ENDBRANCH  21  22
ENDBRANCH  20  21
BRANCH  20  26
ATOM     26  C   UNL     1      51.851   7.879  14.349  1.00  0.00    +0.208 C 
BRANCH  26  27
ATOM     27  C   UNL     1      51.651   9.277  14.929  1.00  0.00    +0.317 C 
ATOM     28  O   UNL     1      50.935   9.543  15.880  1.00  0.00    -0.251 OA
BRANCH  27  29
ATOM     29  O   UNL     1      52.338  10.221  14.232  1.00  0.00    -0.480 OA
ATOM     30  H   UNL     1      52.383  11.025  14.799  1.00  0.00    +0.296 HD
ENDBRANCH  27  29
ENDBRANCH  26  27
ENDBRANCH  20  26
ENDBRANCH  19  20
ENDBRANCH  18  19
ENDBRANCH  17  18
ENDBRANCH  16  17
ENDBRANCH   1  16
TORSDOF 21
ENDMDL
MODEL 4
REMARK VINA RESULT:      -3.8      1.852      3.587
REMARK SMILES O=C(O)CN(CCOCCOCCN(CC(=O)O)CC(=O)O)CC(=O)O
REMARK SMILES IDX 9 1 8 2 7 3 6 4 5 5 4 6 2 7 1 8 3 9 23 11 24 12 25 13 26 14
REMARK SMILES IDX 10 16 11 17 12 18 13 19 14 20 15 21 16 22 17 23 18 24 19 26
REMARK SMILES IDX 20 27 21 28 22 29
REMARK H PARENT 3 10 26 15 18 25 22 30
ROOT
ATOM      1  C   UNL     1      57.143   8.271   8.456  1.00  0.00    +0.188 C 
ENDROOT
BRANCH   1   2
ATOM      2  O   UNL     1      57.300   8.395   7.030  1.00  0.00    -0.378 OA
BRANCH   2   3
ATOM      3  C   UNL     1      58.564   8.990   6.680  1.00  0.00    +0.175 C 
BRANCH   3   4
ATOM      4  C   UNL     1      59.066   9.938   7.800  1.00  0.00    +0.114 C 
BRANCH   4   5
ATOM      5  N   UNL     1      60.282  10.760   7.511  1.00  0.00    -0.280 NA
BRANCH   5   6
ATOM      6  C   UNL     1      59.968  11.621   6.313  1.00  0.00    +0.208 C 
BRANCH   6   7
ATOM      7  C   UNL     1      61.177  11.804   5.393  1.00  0.00    +0.317 C 
ATOM      8  O   UNL     1      61.676  10.924   4.715  1.00  0.00    -0.251 OA
BRANCH   7   9
ATOM      9  O   UNL     1      61.679  13.066   5.455  1.00  0.00    -0.480 OA
ATOM     10  H   UNL     1      60.937  13.681   5.643  1.00  0.00    +0.296 HD
ENDBRANCH   7   9
ENDBRANCH   6   7
ENDBRANCH   5   6
BRANCH   5  11
ATOM     11  C   UNL     1      60.708  11.611   8.662  1.00  0.00    +0.208 C 
BRANCH  11  12
ATOM     12  C   UNL     1      61.284  10.827   9.829  1.00  0.00    +0.317 C 
ATOM     13  O   UNL     1      62.452  10.484   9.925  1.00  0.00    -0.251 OA
BRANCH  12  14
ATOM     14  O   UNL     1      60.393  10.602  10.810  1.00  0.00    -0.480 OA
ATOM     15  H   UNL     1      59.647  10.025  10.512  1.00  0.00    +0.296 HD
ENDBRANCH  12  14
ENDBRANCH  11  12
ENDBRANCH   5  11
ENDBRANCH   4   5
ENDBRANCH   3   4
ENDBRANCH   2   3
ENDBRANCH   1   2
BRANCH   1  16
ATOM     16  C   UNL     1      55.918   7.399   8.764  1.00  0.00    +0.188 C 
BRANCH  16  17
ATOM     17  O   UNL     1      55.532   7.525  10.148  1.00  0.00    -0.378 OA
BRANCH  17  18
ATOM     18  C   UNL     1      54.102   7.380  10.287  1.00  0.00    +0.175 C 
BRANCH  18  19
ATOM     19  C   UNL     1      53.670   7.133  11.758  1.00  0.00    +0.114 C 
BRANCH  19  20
ATOM     20  N   UNL     1      52.480   7.913  12.194  1.00  0.00    -0.280 NA
BRANCH  20  21
ATOM     21  C   UNL     1      51.239   7.458  11.522  1.00  0.00    +0.208 C 
BRANCH  21  22
ATOM     22  C   UNL     1      50.612   8.453  10.548  1.00  0.00    +0.317 C 
ATOM     23  O   UNL     1      50.578   8.298   9.335  1.00  0.00    -0.251 OA
BRANCH  22  24
ATOM     24  O   UNL     1      50.135   9.575  11.145  1.00  0.00    -0.480 OA
ATOM     25  H   UNL     1      50.823  10.035  11.682  1.00  0.00    +0.296 HD
ENDBRANCH  22  24
ENDBRANCH  21  22
ENDBRANCH  20  21
BRANCH  20  26
ATOM     26  C   UNL     1      52.267   7.846  13.671  1.00  0.00    +0.208 C 
BRANCH  26  27
ATOM     27  C   UNL     1      51.603   9.125  14.174  1.00  0.00    +0.317 C 
ATOM     28  O   UNL     1      50.399   9.312  14.227  1.00  0.00    -0.251 OA
BRANCH  27  29
ATOM     29  O   UNL     1      52.516  10.070  14.524  1.00  0.00    -0.480 OA
ATOM     30  H   UNL     1      52.078  10.670  15.172  1.00  0.00    +0.296 HD
ENDBRANCH  27  29
ENDBRANCH  26  27
ENDBRANCH  20  26
ENDBRANCH  19  20
ENDBRANCH  18  19
ENDBRANCH  17  18
ENDBRANCH  16  17
ENDBRANCH   1  16
TORSDOF 21
ENDMDL
MODEL 5
REMARK VINA RESULT:      -3.8      1.607      9.376
REMARK SMILES O=C(O)CN(CCOCCOCCN(CC(=O)O)CC(=O)O)CC(=O)O
REMARK SMILES IDX 9 1 8 2 7 3 6 4 5 5 4 6 2 7 1 8 3 9 23 11 24 12 25 13 26 14
REMARK SMILES IDX 10 16 11 17 12 18 13 19 14 20 15 21 16 22 17 23 18 24 19 26
REMARK SMILES IDX 20 27 21 28 22 29
REMARK H PARENT 3 10 26 15 18 25 22 30
ROOT
ATOM      1  C   UNL     1      54.170   6.280   9.659  1.00  0.00    +0.188 C 
ENDROOT
BRANCH   1   2
ATOM      2  O   UNL     1      53.244   7.189  10.282  1.00  0.00    -0.378 OA
BRANCH   2   3
ATOM      3  C   UNL     1      53.411   7.229  11.712  1.00  0.00    +0.175 C 
BRANCH   3   4
ATOM      4  C   UNL     1      52.168   6.652  12.438  1.00  0.00    +0.114 C 
BRANCH   4   5
ATOM      5  N   UNL     1      51.023   7.582  12.685  1.00  0.00    -0.280 NA
BRANCH   5   6
ATOM      6  C   UNL     1      51.601   8.959  12.901  1.00  0.00    +0.208 C 
BRANCH   6   7
ATOM      7  C   UNL     1      51.630   9.355  14.378  1.00  0.00    +0.317 C 
ATOM      8  O   UNL     1      51.069   8.748  15.273  1.00  0.00    -0.251 OA
BRANCH   7   9
ATOM      9  O   UNL     1      52.317  10.510  14.585  1.00  0.00    -0.480 OA
ATOM     10  H   UNL     1      52.927  10.371  15.343  1.00  0.00    +0.296 HD
ENDBRANCH   7   9
ENDBRANCH   6   7
ENDBRANCH   5   6
BRANCH   5  11
ATOM     11  C   UNL     1      50.030   7.608  11.570  1.00  0.00    +0.208 C 
BRANCH  11  12
ATOM     12  C   UNL     1      50.087   8.867  10.722  1.00  0.00    +0.317 C 
ATOM     13  O   UNL     1      49.475   9.895  10.965  1.00  0.00    -0.251 OA
BRANCH  12  14
ATOM     14  O   UNL     1      50.950   8.777   9.695  1.00  0.00    -0.480 OA
ATOM     15  H   UNL     1      51.189   9.664   9.330  1.00  0.00    +0.296 HD
ENDBRANCH  12  14
ENDBRANCH  11  12
ENDBRANCH   5  11
ENDBRANCH   4   5
ENDBRANCH   3   4
ENDBRANCH   2   3
ENDBRANCH   1   2
BRANCH   1  16
ATOM     16  C   UNL     1      55.023   7.039   8.634  1.00  0.00    +0.188 C 
BRANCH  16  17
ATOM     17  O   UNL     1      55.811   8.063   9.277  1.00  0.00    -0.378 OA
BRANCH  17  18
ATOM     18  C   UNL     1      57.207   7.908   8.943  1.00  0.00    +0.175 C 
BRANCH  18  19
ATOM     19  C   UNL     1      57.618   8.749   7.704  1.00  0.00    +0.114 C 
BRANCH  19  20
ATOM     20  N   UNL     1      58.864   9.542   7.878  1.00  0.00    -0.280 NA
BRANCH  20  21
ATOM     21  C   UNL     1      59.984   8.715   8.390  1.00  0.00    +0.208 C 
BRANCH  21  22
ATOM     22  C   UNL     1      60.615   9.194   9.696  1.00  0.00    +0.317 C 
ATOM     23  O   UNL     1      61.606   8.688  10.206  1.00  0.00    -0.251 OA
BRANCH  22  24
ATOM     24  O   UNL     1      59.940  10.212  10.286  1.00  0.00    -0.480 OA
ATOM     25  H   UNL     1      59.045   9.939  10.596  1.00  0.00    +0.296 HD
ENDBRANCH  22  24
ENDBRANCH  21  22
ENDBRANCH  20  21
BRANCH  20  26
ATOM     26  C   UNL     1      59.304  10.196   6.609  1.00  0.00    +0.208 C 
BRANCH  26  27
ATOM     27  C   UNL     1      59.844  11.596   6.888  1.00  0.00    +0.317 C 
ATOM     28  O   UNL     1      59.692  12.209   7.932  1.00  0.00    -0.251 OA
BRANCH  27  29
ATOM     29  O   UNL     1      60.489  12.117   5.810  1.00  0.00    -0.480 OA
ATOM     30  H   UNL     1      61.054  11.402   5.436  1.00  0.00    +0.296 HD
ENDBRANCH  27  29
ENDBRANCH  26  27
ENDBRANCH  20  26
ENDBRANCH  19  20
ENDBRANCH  18  19
ENDBRANCH  17  18
ENDBRANCH  16  17
ENDBRANCH   1  16
TORSDOF 21
ENDMDL
MODEL 6
REMARK VINA RESULT:      -3.8      7.614     10.871
REMARK SMILES O=C(O)CN(CCOCCOCCN(CC(=O)O)CC(=O)O)CC(=O)O
REMARK SMILES IDX 9 1 8 2 7 3 6 4 5 5 4 6 2 7 1 8 3 9 23 11 24 12 25 13 26 14
REMARK SMILES IDX 10 16 11 17 12 18 13 19 14 20 15 21 16 22 17 23 18 24 19 26
REMARK SMILES IDX 20 27 21 28 22 29
REMARK H PARENT 3 10 26 15 18 25 22 30
ROOT
ATOM      1  C   UNL     1      51.881   5.566  18.841  1.00  0.00    +0.188 C 
ENDROOT
BRANCH   1   2
ATOM      2  O   UNL     1      51.440   6.285  17.675  1.00  0.00    -0.378 OA
BRANCH   2   3
ATOM      3  C   UNL     1      50.189   5.777  17.174  1.00  0.00    +0.175 C 
BRANCH   3   4
ATOM      4  C   UNL     1      49.787   6.485  15.853  1.00  0.00    +0.114 C 
BRANCH   4   5
ATOM      5  N   UNL     1      49.816   7.980  15.838  1.00  0.00    -0.280 NA
BRANCH   5   6
ATOM      6  C   UNL     1      50.703   8.401  14.693  1.00  0.00    +0.208 C 
BRANCH   6   7
ATOM      7  C   UNL     1      51.493   9.674  15.004  1.00  0.00    +0.317 C 
ATOM      8  O   UNL     1      51.361  10.347  16.011  1.00  0.00    -0.251 OA
BRANCH   7   9
ATOM      9  O   UNL     1      52.337  10.011  13.994  1.00  0.00    -0.480 OA
ATOM     10  H   UNL     1      51.839  10.562  13.351  1.00  0.00    +0.296 HD
ENDBRANCH   7   9
ENDBRANCH   6   7
ENDBRANCH   5   6
BRANCH   5  11
ATOM     11  C   UNL     1      48.462   8.597  15.697  1.00  0.00    +0.208 C 
BRANCH  11  12
ATOM     12  C   UNL     1      47.883   9.117  17.002  1.00  0.00    +0.317 C 
ATOM     13  O   UNL     1      47.109   8.495  17.712  1.00  0.00    -0.251 OA
BRANCH  12  14
ATOM     14  O   UNL     1      48.366  10.320  17.356  1.00  0.00    -0.480 OA
ATOM     15  H   UNL     1      48.115  10.566  18.280  1.00  0.00    +0.296 HD
ENDBRANCH  12  14
ENDBRANCH  11  12
ENDBRANCH   5  11
ENDBRANCH   4   5
ENDBRANCH   3   4
ENDBRANCH   2   3
ENDBRANCH   1   2
BRANCH   1  16
ATOM     16  C   UNL     1      53.370   5.221  18.699  1.00  0.00    +0.188 C 
BRANCH  16  17
ATOM     17  O   UNL     1      54.197   6.301  19.178  1.00  0.00    -0.378 OA
BRANCH  17  18
ATOM     18  C   UNL     1      53.670   6.828  20.415  1.00  0.00    +0.175 C 
BRANCH  18  19
ATOM     19  C   UNL     1      54.063   8.313  20.643  1.00  0.00    +0.114 C 
BRANCH  19  20
ATOM     20  N   UNL     1      52.914   9.228  20.879  1.00  0.00    -0.280 NA
BRANCH  20  21
ATOM     21  C   UNL     1      51.613   8.520  20.805  1.00  0.00    +0.208 C 
BRANCH  21  22
ATOM     22  C   UNL     1      50.625   9.060  19.774  1.00  0.00    +0.317 C 
ATOM     23  O   UNL     1      49.491   9.434  20.040  1.00  0.00    -0.251 OA
BRANCH  22  24
ATOM     24  O   UNL     1      51.098   9.039  18.502  1.00  0.00    -0.480 OA
ATOM     25  H   UNL     1      50.532   8.501  17.901  1.00  0.00    +0.296 HD
ENDBRANCH  22  24
ENDBRANCH  21  22
ENDBRANCH  20  21
BRANCH  20  26
ATOM     26  C   UNL     1      52.999   9.918  22.202  1.00  0.00    +0.208 C 
BRANCH  26  27
ATOM     27  C   UNL     1      52.862  11.428  22.027  1.00  0.00    +0.317 C 
ATOM     28  O   UNL     1      53.569  12.115  21.309  1.00  0.00    -0.251 OA
BRANCH  27  29
ATOM     29  O   UNL     1      51.874  11.944  22.806  1.00  0.00    -0.480 OA
ATOM     30  H   UNL     1      51.847  11.407  23.632  1.00  0.00    +0.296 HD
ENDBRANCH  27  29
ENDBRANCH  26  27
ENDBRANCH  20  26
ENDBRANCH  19  20
ENDBRANCH  18  19
ENDBRANCH  17  18
ENDBRANCH  16  17
ENDBRANCH   1  16
TORSDOF 21
ENDMDL
MODEL 7
REMARK VINA RESULT:      -3.7      6.765      9.862
REMARK SMILES O=C(O)CN(CCOCCOCCN(CC(=O)O)CC(=O)O)CC(=O)O
REMARK SMILES IDX 9 1 8 2 7 3 6 4 5 5 4 6 2 7 1 8 3 9 23 11 24 12 25 13 26 14
REMARK SMILES IDX 10 16 11 17 12 18 13 19 14 20 15 21 16 22 17 23 18 24 19 26
REMARK SMILES IDX 20 27 21 28 22 29
REMARK H PARENT 3 10 26 15 18 25 22 30
ROOT
ATOM      1  C   UNL     1      54.329   4.556  16.996  1.00  0.00    +0.188 C 
ENDROOT
BRANCH   1   2
ATOM      2  O   UNL     1      53.236   5.481  16.852  1.00  0.00    -0.378 OA
BRANCH   2   3
ATOM      3  C   UNL     1      52.742   5.521  15.500  1.00  0.00    +0.175 C 
BRANCH   3   4
ATOM      4  C   UNL     1      51.294   6.076  15.450  1.00  0.00    +0.114 C 
BRANCH   4   5
ATOM      5  N   UNL     1      51.131   7.557  15.312  1.00  0.00    -0.280 NA
BRANCH   5   6
ATOM      6  C   UNL     1      50.743   7.835  13.881  1.00  0.00    +0.208 C 
BRANCH   6   7
ATOM      7  C   UNL     1      51.769   8.711  13.159  1.00  0.00    +0.317 C 
ATOM      8  O   UNL     1      52.113   8.568  11.999  1.00  0.00    -0.251 OA
BRANCH   7   9
ATOM      9  O   UNL     1      52.307   9.651  13.980  1.00  0.00    -0.480 OA
ATOM     10  H   UNL     1      53.232   9.389  14.180  1.00  0.00    +0.296 HD
ENDBRANCH   7   9
ENDBRANCH   6   7
ENDBRANCH   5   6
BRANCH   5  11
ATOM     11  C   UNL     1      50.113   8.129  16.244  1.00  0.00    +0.208 C 
BRANCH  11  12
ATOM     12  C   UNL     1      50.605   9.329  17.034  1.00  0.00    +0.317 C 
ATOM     13  O   UNL     1      51.136  10.312  16.541  1.00  0.00    -0.251 OA
BRANCH  12  14
ATOM     14  O   UNL     1      50.332   9.251  18.347  1.00  0.00    -0.480 OA
ATOM     15  H   UNL     1      49.552   9.803  18.600  1.00  0.00    +0.296 HD
ENDBRANCH  12  14
ENDBRANCH  11  12
ENDBRANCH   5  11
ENDBRANCH   4   5
ENDBRANCH   3   4
ENDBRANCH   2   3
ENDBRANCH   1   2
BRANCH   1  16
ATOM     16  C   UNL     1      55.061   4.826  18.317  1.00  0.00    +0.188 C 
BRANCH  16  17
ATOM     17  O   UNL     1      55.133   6.242  18.586  1.00  0.00    -0.378 OA
BRANCH  17  18
ATOM     18  C   UNL     1      56.102   6.508  19.623  1.00  0.00    +0.175 C 
BRANCH  18  19
ATOM     19  C   UNL     1      55.436   6.877  20.976  1.00  0.00    +0.114 C 
BRANCH  19  20
ATOM     20  N   UNL     1      54.099   7.519  20.855  1.00  0.00    -0.280 NA
BRANCH  20  21
ATOM     21  C   UNL     1      52.999   6.581  21.183  1.00  0.00    +0.208 C 
BRANCH  21  22
ATOM     22  C   UNL     1      51.979   6.344  20.072  1.00  0.00    +0.317 C 
ATOM     23  O   UNL     1      51.007   5.609  20.176  1.00  0.00    -0.251 OA
BRANCH  22  24
ATOM     24  O   UNL     1      52.277   6.985  18.913  1.00  0.00    -0.480 OA
ATOM     25  H   UNL     1      53.220   6.866  18.650  1.00  0.00    +0.296 HD
ENDBRANCH  22  24
ENDBRANCH  21  22
ENDBRANCH  20  21
BRANCH  20  26
ATOM     26  C   UNL     1      53.966   8.724  21.727  1.00  0.00    +0.208 C 
BRANCH  26  27
ATOM     27  C   UNL     1      53.569   9.943  20.899  1.00  0.00    +0.317 C 
ATOM     28  O   UNL     1      53.770  11.102  21.220  1.00  0.00    -0.251 OA
BRANCH  27  29
ATOM     29  O   UNL     1      52.914   9.593  19.759  1.00  0.00    -0.480 OA
ATOM     30  H   UNL     1      53.478   8.936  19.290  1.00  0.00    +0.296 HD
ENDBRANCH  27  29
ENDBRANCH  26  27
ENDBRANCH  20  26
ENDBRANCH  19  20
ENDBRANCH  18  19
ENDBRANCH  17  18
ENDBRANCH  16  17
ENDBRANCH   1  16
TORSDOF 21
ENDMDL
MODEL 8
REMARK VINA RESULT:      -3.7      7.204     11.356
REMARK SMILES O=C(O)CN(CCOCCOCCN(CC(=O)O)CC(=O)O)CC(=O)O
REMARK SMILES IDX 9 1 8 2 7 3 6 4 5 5 4 6 2 7 1 8 3 9 23 11 24 12 25 13 26 14
REMARK SMILES IDX 10 16 11 17 12 18 13 19 14 20 15 21 16 22 17 23 18 24 19 26
REMARK SMILES IDX 20 27 21 28 22 29
REMARK H PARENT 3 10 26 15 18 25 22 30
ROOT
ATOM      1  C   UNL     1      49.646   7.898  20.256  1.00  0.00    +0.188 C 
ENDROOT
BRANCH   1   2
ATOM      2  O   UNL     1      50.210   9.105  20.802  1.00  0.00    -0.378 OA
BRANCH   2   3
ATOM      3  C   UNL     1      49.846   9.290  22.183  1.00  0.00    +0.175 C 
BRANCH   3   4
ATOM      4  C   UNL     1      51.097   9.559  23.060  1.00  0.00    +0.114 C 
BRANCH   4   5
ATOM      5  N   UNL     1      52.199  10.369  22.454  1.00  0.00    -0.280 NA
BRANCH   5   6
ATOM      6  C   UNL     1      52.439  11.551  23.360  1.00  0.00    +0.208 C 
BRANCH   6   7
ATOM      7  C   UNL     1      53.184  12.685  22.655  1.00  0.00    +0.317 C 
ATOM      8  O   UNL     1      53.258  12.825  21.447  1.00  0.00    -0.251 OA
BRANCH   7   9
ATOM      9  O   UNL     1      53.813  13.509  23.535  1.00  0.00    -0.480 OA
ATOM     10  H   UNL     1      54.633  13.063  23.838  1.00  0.00    +0.296 HD
ENDBRANCH   7   9
ENDBRANCH   6   7
ENDBRANCH   5   6
BRANCH   5  11
ATOM     11  C   UNL     1      53.465   9.598  22.264  1.00  0.00    +0.208 C 
BRANCH  11  12
ATOM     12  C   UNL     1      53.690   9.124  20.839  1.00  0.00    +0.317 C 
ATOM     13  O   UNL     1      54.490   8.260  20.515  1.00  0.00    -0.251 OA
BRANCH  12  14
ATOM     14  O   UNL     1      52.859   9.694  19.950  1.00  0.00    -0.480 OA
ATOM     15  H   UNL     1      52.544  10.582  20.251  1.00  0.00    +0.296 HD
ENDBRANCH  12  14
ENDBRANCH  11  12
ENDBRANCH   5  11
ENDBRANCH   4   5
ENDBRANCH   3   4
ENDBRANCH   2   3
ENDBRANCH   1   2
BRANCH   1  16
ATOM     16  C   UNL     1      50.754   6.856  20.059  1.00  0.00    +0.188 C 
BRANCH  16  17
ATOM     17  O   UNL     1      51.500   7.120  18.852  1.00  0.00    -0.378 OA
BRANCH  17  18
ATOM     18  C   UNL     1      50.725   6.748  17.690  1.00  0.00    +0.175 C 
BRANCH  18  19
ATOM     19  C   UNL     1      51.329   7.302  16.372  1.00  0.00    +0.114 C 
BRANCH  19  20
ATOM     20  N   UNL     1      50.626   8.491  15.820  1.00  0.00    -0.280 NA
BRANCH  20  21
ATOM     21  C   UNL     1      50.086   9.366  16.889  1.00  0.00    +0.208 C 
BRANCH  21  22
ATOM     22  C   UNL     1      48.576   9.592  16.857  1.00  0.00    +0.317 C 
ATOM     23  O   UNL     1      47.872   9.391  15.877  1.00  0.00    -0.251 OA
BRANCH  22  24
ATOM     24  O   UNL     1      48.076  10.101  18.012  1.00  0.00    -0.480 OA
ATOM     25  H   UNL     1      47.818   9.396  18.651  1.00  0.00    +0.296 HD
ENDBRANCH  22  24
ENDBRANCH  21  22
ENDBRANCH  20  21
BRANCH  20  26
ATOM     26  C   UNL     1      51.508   9.315  14.940  1.00  0.00    +0.208 C 
BRANCH  26  27
ATOM     27  C   UNL     1      51.107   9.151  13.476  1.00  0.00    +0.317 C 
ATOM     28  O   UNL     1      49.964   9.010  13.076  1.00  0.00    -0.251 OA
BRANCH  27  29
ATOM     29  O   UNL     1      52.188   9.137  12.651  1.00  0.00    -0.480 OA
ATOM     30  H   UNL     1      51.909   9.547  11.800  1.00  0.00    +0.296 HD
ENDBRANCH  27  29
ENDBRANCH  26  27
ENDBRANCH  20  26
ENDBRANCH  19  20
ENDBRANCH  18  19
ENDBRANCH  17  18
ENDBRANCH  16  17
ENDBRANCH   1  16
TORSDOF 21
ENDMDL
MODEL 9
REMARK VINA RESULT:      -3.7      5.965      8.918
REMARK SMILES O=C(O)CN(CCOCCOCCN(CC(=O)O)CC(=O)O)CC(=O)O
REMARK SMILES IDX 9 1 8 2 7 3 6 4 5 5 4 6 2 7 1 8 3 9 23 11 24 12 25 13 26 14
REMARK SMILES IDX 10 16 11 17 12 18 13 19 14 20 15 21 16 22 17 23 18 24 19 26
REMARK SMILES IDX 20 27 21 28 22 29
REMARK H PARENT 3 10 26 15 18 25 22 30
ROOT
ATOM      1  C   UNL     1      46.595   9.957   9.873  1.00  0.00    +0.188 C 
ENDROOT
BRANCH   1   2
ATOM      2  O   UNL     1      46.295  10.857   8.790  1.00  0.00    -0.378 OA
BRANCH   2   3
ATOM      3  C   UNL     1      47.042  10.533   7.602  1.00  0.00    +0.175 C 
BRANCH   3   4
ATOM      4  C   UNL     1      46.826  11.600   6.497  1.00  0.00    +0.114 C 
BRANCH   4   5
ATOM      5  N   UNL     1      47.895  12.630   6.318  1.00  0.00    -0.280 NA
BRANCH   5   6
ATOM      6  C   UNL     1      48.987  12.005   5.485  1.00  0.00    +0.208 C 
BRANCH   6   7
ATOM      7  C   UNL     1      50.335  11.990   6.207  1.00  0.00    +0.317 C 
ATOM      8  O   UNL     1      50.720  11.099   6.944  1.00  0.00    -0.251 OA
BRANCH   7   9
ATOM      9  O   UNL     1      51.051  13.122   5.978  1.00  0.00    -0.480 OA
ATOM     10  H   UNL     1      51.998  12.875   5.898  1.00  0.00    +0.296 HD
ENDBRANCH   7   9
ENDBRANCH   6   7
ENDBRANCH   5   6
BRANCH   5  11
ATOM     11  C   UNL     1      47.406  13.885   5.672  1.00  0.00    +0.208 C 
BRANCH  11  12
ATOM     12  C   UNL     1      48.248  15.110   5.987  1.00  0.00    +0.317 C 
ATOM     13  O   UNL     1      48.129  15.791   6.993  1.00  0.00    -0.251 OA
BRANCH  12  14
ATOM     14  O   UNL     1      49.210  15.341   5.079  1.00  0.00    -0.480 OA
ATOM     15  H   UNL     1      48.951  16.041   4.430  1.00  0.00    +0.296 HD
ENDBRANCH  12  14
ENDBRANCH  11  12
ENDBRANCH   5  11
ENDBRANCH   4   5
ENDBRANCH   3   4
ENDBRANCH   2   3
ENDBRANCH   1   2
BRANCH   1  16
ATOM     16  C   UNL     1      47.859   9.153   9.538  1.00  0.00    +0.188 C 
BRANCH  16  17
ATOM     17  O   UNL     1      48.895   9.395  10.512  1.00  0.00    -0.378 OA
BRANCH  17  18
ATOM     18  C   UNL     1      49.974   8.449  10.345  1.00  0.00    +0.175 C 
BRANCH  18  19
ATOM     19  C   UNL     1      50.123   7.499  11.564  1.00  0.00    +0.114 C 
BRANCH  19  20
ATOM     20  N   UNL     1      51.286   7.797  12.443  1.00  0.00    -0.280 NA
BRANCH  20  21
ATOM     21  C   UNL     1      52.573   7.413  11.814  1.00  0.00    +0.208 C 
BRANCH  21  22
ATOM     22  C   UNL     1      53.557   6.676  12.720  1.00  0.00    +0.317 C 
ATOM     23  O   UNL     1      53.233   6.051  13.721  1.00  0.00    -0.251 OA
BRANCH  22  24
ATOM     24  O   UNL     1      54.854   6.819  12.348  1.00  0.00    -0.480 OA
ATOM     25  H   UNL     1      55.480   6.505  13.041  1.00  0.00    +0.296 HD
ENDBRANCH  22  24
ENDBRANCH  21  22
ENDBRANCH  20  21
BRANCH  20  26
ATOM     26  C   UNL     1      51.358   9.241  12.818  1.00  0.00    +0.208 C 
BRANCH  26  27
ATOM     27  C   UNL     1      51.599   9.392  14.318  1.00  0.00    +0.317 C 
ATOM     28  O   UNL     1      51.173   8.634  15.174  1.00  0.00    -0.251 OA
BRANCH  27  29
ATOM     29  O   UNL     1      52.317  10.510  14.609  1.00  0.00    -0.480 OA
ATOM     30  H   UNL     1      51.826  10.995  15.312  1.00  0.00    +0.296 HD
ENDBRANCH  27  29
ENDBRANCH  26  27
ENDBRANCH  20  26
ENDBRANCH  19  20
ENDBRANCH  18  19
ENDBRANCH  17  18
ENDBRANCH  16  17
ENDBRANCH   1  16
TORSDOF 21
ENDMDL
