MODEL 1
REMARK VINA RESULT:      -2.9      0.000      0.000
REMARK SMILES NCC(=O)O
REMARK SMILES IDX 3 1 4 2 2 3 1 4 5 7
REMARK H PARENT 1 5 1 6 5 8
ROOT
ATOM      1  C   UNL     1      51.246   9.036  13.068  1.00  0.00    +0.317 C 
ATOM      2  O   UNL     1      50.120   8.996  12.600  1.00  0.00    -0.251 OA
ENDROOT
BRANCH   1   3
ATOM      3  C   UNL     1      51.574   9.185  14.552  1.00  0.00    +0.201 C 
BRANCH   3   4
ATOM      4  N   UNL     1      52.301  10.463  14.762  1.00  0.00    -0.321 NA
ATOM      5  H   UNL     1      52.038  10.819  15.686  1.00  0.00    +0.119 HD
ATOM      6  H   UNL     1      51.907  11.154  14.113  1.00  0.00    +0.119 HD
ENDBRANCH   3   4
ENDBRANCH   1   3
BRANCH   1   7
ATOM      7  O   UNL     1      52.377   8.918  12.324  1.00  0.00    -0.480 OA
ATOM      8  H   UNL     1      52.104   9.070  11.385  1.00  0.00    +0.296 HD
ENDBRANCH   1   7
TORSDOF 3
ENDMDL
MODEL 2
REMARK VINA RESULT:      -2.9      2.264      2.460
REMARK SMILES NCC(=O)O
REMARK SMILES IDX 3 1 4 2 2 3 1 4 5 7
REMARK H PARENT 1 5 1 6 5 8
ROOT
ATOM      1  C   UNL     1      51.557   9.355  14.429  1.00  0.00    +0.317 C 
ATOM      2  O   UNL     1      51.263   8.708  15.421  1.00  0.00    -0.251 OA
ENDROOT
BRANCH   1   3
ATOM      3  C   UNL     1      51.146   9.007  13.001  1.00  0.00    +0.201 C 
BRANCH   3   4
ATOM      4  N   UNL     1      52.358   8.968  12.143  1.00  0.00    -0.321 NA
ATOM      5  H   UNL     1      52.698   9.930  12.048  1.00  0.00    +0.119 HD
ATOM      6  H   UNL     1      52.058   8.721  11.193  1.00  0.00    +0.119 HD
ENDBRANCH   3   4
ENDBRANCH   1   3
BRANCH   1   7
ATOM      7  O   UNL     1      52.274  10.509  14.467  1.00  0.00    -0.480 OA
ATOM      8  H   UNL     1      52.585  10.608  15.401  1.00  0.00    +0.296 HD
ENDBRANCH   1   7
TORSDOF 3
ENDMDL
MODEL 3
REMARK VINA RESULT:      -2.8      1.822      2.020
REMARK SMILES NCC(=O)O
REMARK SMILES IDX 3 1 4 2 2 3 1 4 5 7
REMARK H PARENT 1 5 1 6 5 8
ROOT
ATOM      1  C   UNL     1      51.656   9.407  14.326  1.00  0.00    +0.317 C 
ATOM      2  O   UNL     1      51.788   8.819  13.265  1.00  0.00    -0.251 OA
ENDROOT
BRANCH   1   3
ATOM      3  C   UNL     1      50.812   8.917  15.500  1.00  0.00    +0.201 C 
BRANCH   3   4
ATOM      4  N   UNL     1      51.109   9.753  16.692  1.00  0.00    -0.321 NA
ATOM      5  H   UNL     1      52.122   9.905  16.716  1.00  0.00    +0.119 HD
ATOM      6  H   UNL     1      50.928   9.181  17.525  1.00  0.00    +0.119 HD
ENDBRANCH   3   4
ENDBRANCH   1   3
BRANCH   1   7
ATOM      7  O   UNL     1      52.279  10.577  14.623  1.00  0.00    -0.480 OA
ATOM      8  H   UNL     1      52.944  10.364  15.324  1.00  0.00    +0.296 HD
ENDBRANCH   1   7
TORSDOF 3
ENDMDL
MODEL 4
REMARK VINA RESULT:      -2.7      2.629      2.918
REMARK SMILES NCC(=O)O
REMARK SMILES IDX 3 1 4 2 2 3 1 4 5 7
REMARK H PARENT 1 5 1 6 5 8
ROOT
ATOM      1  C   UNL     1      50.677   8.998  15.844  1.00  0.00    +0.317 C 
ATOM      2  O   UNL     1      49.666   8.316  15.899  1.00  0.00    -0.251 OA
ENDROOT
BRANCH   1   3
ATOM      3  C   UNL     1      51.564   9.154  14.612  1.00  0.00    +0.201 C 
BRANCH   3   4
ATOM      4  N   UNL     1      52.300  10.441  14.704  1.00  0.00    -0.321 NA
ATOM      5  H   UNL     1      52.642  10.667  13.765  1.00  0.00    +0.119 HD
ATOM      6  H   UNL     1      53.158  10.270  15.241  1.00  0.00    +0.119 HD
ENDBRANCH   3   4
ENDBRANCH   1   3
BRANCH   1   7
ATOM      7  O   UNL     1      51.137   9.749  16.879  1.00  0.00    -0.480 OA
ATOM      8  H   UNL     1      52.047  10.040  16.624  1.00  0.00    +0.296 HD
ENDBRANCH   1   7
TORSDOF 3
ENDMDL
MODEL 5
REMARK VINA RESULT:      -2.4     10.332     10.859
REMARK SMILES NCC(=O)O
REMARK SMILES IDX 3 1 4 2 2 3 1 4 5 7
REMARK H PARENT 1 5 1 6 5 8
ROOT
ATOM      1  C   UNL     1      61.234  11.702   8.619  1.00  0.00    +0.317 C 
ATOM      2  O   UNL     1      62.047  12.160   7.833  1.00  0.00    -0.251 OA
ENDROOT
BRANCH   1   3
ATOM      3  C   UNL     1      61.546  10.683   9.711  1.00  0.00    +0.201 C 
BRANCH   3   4
ATOM      4  N   UNL     1      60.370  10.558  10.609  1.00  0.00    -0.321 NA
ATOM      5  H   UNL     1      60.720  10.326  11.544  1.00  0.00    +0.119 HD
ATOM      6  H   UNL     1      59.852   9.718  10.327  1.00  0.00    +0.119 HD
ENDBRANCH   3   4
ENDBRANCH   1   3
BRANCH   1   7
ATOM      7  O   UNL     1      59.926  12.070   8.650  1.00  0.00    -0.480 OA
ATOM      8  H   UNL     1      59.648  12.017   9.598  1.00  0.00    +0.296 HD
ENDBRANCH   1   7
TORSDOF 3
ENDMDL
MODEL 6
REMARK VINA RESULT:      -2.4      9.790     10.340
REMARK SMILES NCC(=O)O
REMARK SMILES IDX 3 1 4 2 2 3 1 4 5 7
REMARK H PARENT 1 5 1 6 5 8
ROOT
ATOM      1  C   UNL     1      60.965  10.446  10.162  1.00  0.00    +0.317 C 
ATOM      2  O   UNL     1      61.778  10.047  10.980  1.00  0.00    -0.251 OA
ENDROOT
BRANCH   1   3
ATOM      3  C   UNL     1      61.285  11.356   8.979  1.00  0.00    +0.201 C 
BRANCH   3   4
ATOM      4  N   UNL     1      60.044  12.052   8.553  1.00  0.00    -0.321 NA
ATOM      5  H   UNL     1      59.726  11.609   7.685  1.00  0.00    +0.119 HD
ATOM      6  H   UNL     1      60.304  13.001   8.261  1.00  0.00    +0.119 HD
ENDBRANCH   3   4
ENDBRANCH   1   3
BRANCH   1   7
ATOM      7  O   UNL     1      59.651  10.098  10.173  1.00  0.00    -0.480 OA
ATOM      8  H   UNL     1      59.585   9.292  10.743  1.00  0.00    +0.296 HD
ENDBRANCH   1   7
TORSDOF 3
ENDMDL
MODEL 7
REMARK VINA RESULT:      -2.4      9.796     10.033
REMARK SMILES NCC(=O)O
REMARK SMILES IDX 3 1 4 2 2 3 1 4 5 7
REMARK H PARENT 1 5 1 6 5 8
ROOT
ATOM      1  C   UNL     1      59.687  11.430   7.671  1.00  0.00    +0.317 C 
ATOM      2  O   UNL     1      59.582  11.873   6.538  1.00  0.00    -0.251 OA
ENDROOT
BRANCH   1   3
ATOM      3  C   UNL     1      59.443   9.977   8.070  1.00  0.00    +0.201 C 
BRANCH   3   4
ATOM      4  N   UNL     1      59.214   9.910   9.537  1.00  0.00    -0.321 NA
ATOM      5  H   UNL     1      59.476  10.819   9.931  1.00  0.00    +0.119 HD
ATOM      6  H   UNL     1      59.907   9.264   9.930  1.00  0.00    +0.119 HD
ENDBRANCH   3   4
ENDBRANCH   1   3
BRANCH   1   7
ATOM      7  O   UNL     1      60.073  12.176   8.739  1.00  0.00    -0.480 OA
ATOM      8  H   UNL     1      60.105  11.556   9.509  1.00  0.00    +0.296 HD
ENDBRANCH   1   7
TORSDOF 3
ENDMDL
MODEL 8
REMARK VINA RESULT:      -2.2      9.614     10.151
REMARK SMILES NCC(=O)O
REMARK SMILES IDX 3 1 4 2 2 3 1 4 5 7
REMARK H PARENT 1 5 1 6 5 8
ROOT
ATOM      1  C   UNL     1      60.945  10.768   9.608  1.00  0.00    +0.317 C 
ATOM      2  O   UNL     1      61.914  11.427   9.267  1.00  0.00    -0.251 OA
ENDROOT
BRANCH   1   3
ATOM      3  C   UNL     1      60.000  10.040   8.654  1.00  0.00    +0.201 C 
BRANCH   3   4
ATOM      4  N   UNL     1      58.770   9.653   9.392  1.00  0.00    -0.321 NA
ATOM      5  H   UNL     1      58.960   8.763   9.862  1.00  0.00    +0.119 HD
ATOM      6  H   UNL     1      58.054   9.415   8.697  1.00  0.00    +0.119 HD
ENDBRANCH   3   4
ENDBRANCH   1   3
BRANCH   1   7
ATOM      7  O   UNL     1      60.592  10.560  10.903  1.00  0.00    -0.480 OA
ATOM      8  H   UNL     1      60.204   9.651  10.940  1.00  0.00    +0.296 HD
ENDBRANCH   1   7
TORSDOF 3
ENDMDL
MODEL 9
REMARK VINA RESULT:      -2.2      8.482      8.833
REMARK SMILES NCC(=O)O
REMARK SMILES IDX 3 1 4 2 2 3 1 4 5 7
REMARK H PARENT 1 5 1 6 5 8
ROOT
ATOM      1  C   UNL     1      54.312  10.120  21.244  1.00  0.00    +0.317 C 
ATOM      2  O   UNL     1      53.727  11.173  21.045  1.00  0.00    -0.251 OA
ENDROOT
BRANCH   1   3
ATOM      3  C   UNL     1      54.921   9.694  22.577  1.00  0.00    +0.201 C 
BRANCH   3   4
ATOM      4  N   UNL     1      56.171  10.463  22.807  1.00  0.00    -0.321 NA
ATOM      5  H   UNL     1      55.901  11.406  23.101  1.00  0.00    +0.119 HD
ATOM      6  H   UNL     1      56.617  10.610  21.895  1.00  0.00    +0.119 HD
ENDBRANCH   3   4
ENDBRANCH   1   3
BRANCH   1   7
ATOM      7  O   UNL     1      54.471   9.156  20.299  1.00  0.00    -0.480 OA
ATOM      8  H   UNL     1      54.526   9.628  19.432  1.00  0.00    +0.296 HD
ENDBRANCH   1   7
TORSDOF 3
ENDMDL
