MODEL 1
REMARK VINA RESULT:      -3.3      0.000      0.000
REMARK SMILES O=C(O)CC(=O)O
REMARK SMILES IDX 4 1 2 2 1 3 3 4 5 6 6 7 7 8
REMARK H PARENT 3 5 7 9
ROOT
ATOM      1  C   UNL     1      50.791   9.144  13.008  1.00  0.00    +0.244 C 
ENDROOT
BRANCH   1   2
ATOM      2  C   UNL     1      51.584   9.341  14.269  1.00  0.00    +0.314 C 
ATOM      3  O   UNL     1      51.607   8.477  15.140  1.00  0.00    -0.252 OA
BRANCH   2   4
ATOM      4  O   UNL     1      52.269  10.491  14.412  1.00  0.00    -0.481 OA
ATOM      5  H   UNL     1      53.093  10.565  13.871  1.00  0.00    +0.296 HD
ENDBRANCH   2   4
ENDBRANCH   1   2
BRANCH   1   6
ATOM      6  C   UNL     1      51.505   8.531  11.850  1.00  0.00    +0.314 C 
ATOM      7  O   UNL     1      50.990   7.739  11.072  1.00  0.00    -0.252 OA
BRANCH   6   8
ATOM      8  O   UNL     1      52.790   8.929  11.732  1.00  0.00    -0.481 OA
ATOM      9  H   UNL     1      53.072   9.620  12.363  1.00  0.00    +0.296 HD
ENDBRANCH   6   8
ENDBRANCH   1   6
TORSDOF 4
ENDMDL
MODEL 2
REMARK VINA RESULT:      -3.2      0.848      3.235
REMARK SMILES O=C(O)CC(=O)O
REMARK SMILES IDX 4 1 2 2 1 3 3 4 5 6 6 7 7 8
REMARK H PARENT 3 5 7 9
ROOT
ATOM      1  C   UNL     1      51.711   8.272  13.791  1.00  0.00    +0.244 C 
ENDROOT
BRANCH   1   2
ATOM      2  C   UNL     1      51.694   8.638  12.333  1.00  0.00    +0.314 C 
ATOM      3  O   UNL     1      50.643   8.660  11.701  1.00  0.00    -0.252 OA
BRANCH   2   4
ATOM      4  O   UNL     1      52.866   8.942  11.744  1.00  0.00    -0.481 OA
ATOM      5  H   UNL     1      52.847   9.720  11.135  1.00  0.00    +0.296 HD
ENDBRANCH   2   4
ENDBRANCH   1   2
BRANCH   1   6
ATOM      6  C   UNL     1      51.592   9.392  14.769  1.00  0.00    +0.314 C 
ATOM      7  O   UNL     1      50.950   9.326  15.808  1.00  0.00    -0.252 OA
BRANCH   6   8
ATOM      8  O   UNL     1      52.263  10.506  14.404  1.00  0.00    -0.481 OA
ATOM      9  H   UNL     1      51.839  11.036  13.701  1.00  0.00    +0.296 HD
ENDBRANCH   6   8
ENDBRANCH   1   6
TORSDOF 4
ENDMDL
MODEL 3
REMARK VINA RESULT:      -3.2     10.837     11.480
REMARK SMILES O=C(O)CC(=O)O
REMARK SMILES IDX 4 1 2 2 1 3 3 4 5 6 6 7 7 8
REMARK H PARENT 3 5 7 9
ROOT
ATOM      1  C   UNL     1      46.896  16.536   6.544  1.00  0.00    +0.244 C 
ENDROOT
BRANCH   1   2
ATOM      2  C   UNL     1      48.200  16.179   5.887  1.00  0.00    +0.314 C 
ATOM      3  O   UNL     1      48.745  15.103   6.113  1.00  0.00    -0.252 OA
BRANCH   2   4
ATOM      4  O   UNL     1      48.749  17.073   5.044  1.00  0.00    -0.481 OA
ATOM      5  H   UNL     1      48.113  17.544   4.451  1.00  0.00    +0.296 HD
ENDBRANCH   2   4
ENDBRANCH   1   2
BRANCH   1   6
ATOM      6  C   UNL     1      46.880  17.768   7.385  1.00  0.00    +0.314 C 
ATOM      7  O   UNL     1      46.205  17.893   8.399  1.00  0.00    -0.252 OA
BRANCH   6   8
ATOM      8  O   UNL     1      47.684  18.751   6.926  1.00  0.00    -0.481 OA
ATOM      9  H   UNL     1      48.622  18.502   6.811  1.00  0.00    +0.296 HD
ENDBRANCH   6   8
ENDBRANCH   1   6
TORSDOF 4
ENDMDL
MODEL 4
REMARK VINA RESULT:      -3.2     10.850     11.206
REMARK SMILES O=C(O)CC(=O)O
REMARK SMILES IDX 4 1 2 2 1 3 3 4 5 6 6 7 7 8
REMARK H PARENT 3 5 7 9
ROOT
ATOM      1  C   UNL     1      46.873  16.563   6.452  1.00  0.00    +0.244 C 
ENDROOT
BRANCH   1   2
ATOM      2  C   UNL     1      46.894  17.791   7.319  1.00  0.00    +0.314 C 
ATOM      3  O   UNL     1      46.213  17.853   8.337  1.00  0.00    -0.252 OA
BRANCH   2   4
ATOM      4  O   UNL     1      47.682  18.815   6.945  1.00  0.00    -0.481 OA
ATOM      5  H   UNL     1      48.652  18.680   7.085  1.00  0.00    +0.296 HD
ENDBRANCH   2   4
ENDBRANCH   1   2
BRANCH   1   6
ATOM      6  C   UNL     1      48.177  16.124   5.873  1.00  0.00    +0.314 C 
ATOM      7  O   UNL     1      48.716  15.058   6.136  1.00  0.00    -0.252 OA
BRANCH   6   8
ATOM      8  O   UNL     1      48.722  17.019   5.020  1.00  0.00    -0.481 OA
ATOM      9  H   UNL     1      49.490  16.694   4.511  1.00  0.00    +0.296 HD
ENDBRANCH   6   8
ENDBRANCH   1   6
TORSDOF 4
ENDMDL
MODEL 5
REMARK VINA RESULT:      -3.1      2.020      3.927
REMARK SMILES O=C(O)CC(=O)O
REMARK SMILES IDX 4 1 2 2 1 3 3 4 5 6 6 7 7 8
REMARK H PARENT 3 5 7 9
ROOT
ATOM      1  C   UNL     1      50.962   8.617  15.382  1.00  0.00    +0.244 C 
ENDROOT
BRANCH   1   2
ATOM      2  C   UNL     1      51.636   9.421  14.305  1.00  0.00    +0.314 C 
ATOM      3  O   UNL     1      51.602   9.058  13.134  1.00  0.00    -0.252 OA
BRANCH   2   4
ATOM      4  O   UNL     1      52.274  10.550  14.665  1.00  0.00    -0.481 OA
ATOM      5  H   UNL     1      52.829  10.968  13.962  1.00  0.00    +0.296 HD
ENDBRANCH   2   4
ENDBRANCH   1   2
BRANCH   1   6
ATOM      6  C   UNL     1      50.411   9.374  16.544  1.00  0.00    +0.314 C 
ATOM      7  O   UNL     1      49.227   9.657  16.674  1.00  0.00    -0.252 OA
BRANCH   6   8
ATOM      8  O   UNL     1      51.343   9.728  17.454  1.00  0.00    -0.481 OA
ATOM      9  H   UNL     1      51.934   9.007  17.747  1.00  0.00    +0.296 HD
ENDBRANCH   6   8
ENDBRANCH   1   6
TORSDOF 4
ENDMDL
MODEL 6
REMARK VINA RESULT:      -3.0      1.963      2.787
REMARK SMILES O=C(O)CC(=O)O
REMARK SMILES IDX 4 1 2 2 1 3 3 4 5 6 6 7 7 8
REMARK H PARENT 3 5 7 9
ROOT
ATOM      1  C   UNL     1      51.049   8.570  15.309  1.00  0.00    +0.244 C 
ENDROOT
BRANCH   1   2
ATOM      2  C   UNL     1      50.485   9.312  16.488  1.00  0.00    +0.314 C 
ATOM      3  O   UNL     1      49.282   9.530  16.578  1.00  0.00    -0.252 OA
BRANCH   2   4
ATOM      4  O   UNL     1      51.340   9.727  17.441  1.00  0.00    -0.481 OA
ATOM      5  H   UNL     1      52.292   9.764  17.173  1.00  0.00    +0.296 HD
ENDBRANCH   2   4
ENDBRANCH   1   2
BRANCH   1   6
ATOM      6  C   UNL     1      51.615   9.395  14.201  1.00  0.00    +0.314 C 
ATOM      7  O   UNL     1      51.517   9.104  13.016  1.00  0.00    -0.252 OA
BRANCH   6   8
ATOM      8  O   UNL     1      52.255  10.506  14.622  1.00  0.00    -0.481 OA
ATOM      9  H   UNL     1      52.551  11.111  13.913  1.00  0.00    +0.296 HD
ENDBRANCH   6   8
ENDBRANCH   1   6
TORSDOF 4
ENDMDL
MODEL 7
REMARK VINA RESULT:      -2.9      9.695     10.513
REMARK SMILES O=C(O)CC(=O)O
REMARK SMILES IDX 4 1 2 2 1 3 3 4 5 6 6 7 7 8
REMARK H PARENT 3 5 7 9
ROOT
ATOM      1  C   UNL     1      61.844  11.299   9.106  1.00  0.00    +0.244 C 
ENDROOT
BRANCH   1   2
ATOM      2  C   UNL     1      61.381  10.422  10.236  1.00  0.00    +0.314 C 
ATOM      3  O   UNL     1      62.171   9.701  10.837  1.00  0.00    -0.252 OA
BRANCH   2   4
ATOM      4  O   UNL     1      60.077  10.453  10.566  1.00  0.00    -0.481 OA
ATOM      5  H   UNL     1      59.879  10.738  11.492  1.00  0.00    +0.296 HD
ENDBRANCH   2   4
ENDBRANCH   1   2
BRANCH   1   6
ATOM      6  C   UNL     1      60.826  11.673   8.082  1.00  0.00    +0.314 C 
ATOM      7  O   UNL     1      60.941  11.435   6.887  1.00  0.00    -0.252 OA
BRANCH   6   8
ATOM      8  O   UNL     1      59.749  12.309   8.592  1.00  0.00    -0.481 OA
ATOM      9  H   UNL     1      59.917  12.824   9.405  1.00  0.00    +0.296 HD
ENDBRANCH   6   8
ENDBRANCH   1   6
TORSDOF 4
ENDMDL
MODEL 8
REMARK VINA RESULT:      -2.8      9.577     10.836
REMARK SMILES O=C(O)CC(=O)O
REMARK SMILES IDX 4 1 2 2 1 3 3 4 5 6 6 7 7 8
REMARK H PARENT 3 5 7 9
ROOT
ATOM      1  C   UNL     1      60.150  10.631   8.577  1.00  0.00    +0.244 C 
ENDROOT
BRANCH   1   2
ATOM      2  C   UNL     1      60.375  11.635   7.481  1.00  0.00    +0.314 C 
ATOM      3  O   UNL     1      59.504  11.866   6.650  1.00  0.00    -0.252 OA
BRANCH   2   4
ATOM      4  O   UNL     1      61.560  12.273   7.443  1.00  0.00    -0.481 OA
ATOM      5  H   UNL     1      61.620  13.094   7.991  1.00  0.00    +0.296 HD
ENDBRANCH   2   4
ENDBRANCH   1   2
BRANCH   1   6
ATOM      6  C   UNL     1      61.042  10.723   9.770  1.00  0.00    +0.314 C 
ATOM      7  O   UNL     1      62.254  10.883   9.706  1.00  0.00    -0.252 OA
BRANCH   6   8
ATOM      8  O   UNL     1      60.388  10.612  10.947  1.00  0.00    -0.481 OA
ATOM      9  H   UNL     1      59.429  10.441  10.875  1.00  0.00    +0.296 HD
ENDBRANCH   6   8
ENDBRANCH   1   6
TORSDOF 4
ENDMDL
MODEL 9
REMARK VINA RESULT:      -2.7      8.890     10.473
REMARK SMILES O=C(O)CC(=O)O
REMARK SMILES IDX 4 1 2 2 1 3 3 4 5 6 6 7 7 8
REMARK H PARENT 3 5 7 9
ROOT
ATOM      1  C   UNL     1      54.577  11.014  23.093  1.00  0.00    +0.244 C 
ENDROOT
BRANCH   1   2
ATOM      2  C   UNL     1      53.953  11.236  21.743  1.00  0.00    +0.314 C 
ATOM      3  O   UNL     1      54.016  10.376  20.871  1.00  0.00    -0.252 OA
BRANCH   2   4
ATOM      4  O   UNL     1      53.322  12.404  21.524  1.00  0.00    -0.481 OA
ATOM      5  H   UNL     1      53.748  13.200  21.927  1.00  0.00    +0.296 HD
ENDBRANCH   2   4
ENDBRANCH   1   2
BRANCH   1   6
ATOM      6  C   UNL     1      56.010  10.599  23.113  1.00  0.00    +0.314 C 
ATOM      7  O   UNL     1      56.931  11.342  23.425  1.00  0.00    -0.252 OA
BRANCH   6   8
ATOM      8  O   UNL     1      56.209   9.313  22.751  1.00  0.00    -0.481 OA
ATOM      9  H   UNL     1      55.590   8.668  23.147  1.00  0.00    +0.296 HD
ENDBRANCH   6   8
ENDBRANCH   1   6
TORSDOF 4
ENDMDL
