MODEL 1
REMARK VINA RESULT:      -3.8      0.000      0.000
REMARK SMILES O=C(O)[C@@H](O)[C@@H](O)C(=O)O
REMARK SMILES IDX 4 1 2 2 1 3 3 4 5 6 6 8 7 9 8 11 9 12 10 13
REMARK H PARENT 3 5 5 7 7 10 10 14
ROOT
ATOM      1  C   UNL     1      46.415  16.644   6.495  1.00  0.00    +0.264 C 
ENDROOT
BRANCH   1   2
ATOM      2  C   UNL     1      46.506  17.805   7.479  1.00  0.00    +0.335 C 
ATOM      3  O   UNL     1      45.881  17.887   8.523  1.00  0.00    -0.249 OA
BRANCH   2   4
ATOM      4  O   UNL     1      47.343  18.774   7.030  1.00  0.00    -0.479 OA
ATOM      5  H   UNL     1      46.828  19.563   6.745  1.00  0.00    +0.296 HD
ENDBRANCH   2   4
ENDBRANCH   1   2
BRANCH   1   6
ATOM      6  O   UNL     1      45.973  17.094   5.203  1.00  0.00    -0.379 OA
ATOM      7  H   UNL     1      45.196  17.680   5.358  1.00  0.00    +0.211 HD
ENDBRANCH   1   6
BRANCH   1   8
ATOM      8  C   UNL     1      47.732  15.867   6.424  1.00  0.00    +0.264 C 
BRANCH   8   9
ATOM      9  O   UNL     1      47.494  14.451   6.478  1.00  0.00    -0.379 OA
ATOM     10  H   UNL     1      48.204  14.023   5.956  1.00  0.00    +0.211 HD
ENDBRANCH   8   9
BRANCH   8  11
ATOM     11  C   UNL     1      48.478  16.148   5.127  1.00  0.00    +0.335 C 
ATOM     12  O   UNL     1      48.598  15.343   4.214  1.00  0.00    -0.249 OA
BRANCH  11  13
ATOM     13  O   UNL     1      49.084  17.357   5.135  1.00  0.00    -0.479 OA
ATOM     14  H   UNL     1      48.958  17.816   4.276  1.00  0.00    +0.296 HD
ENDBRANCH  11  13
ENDBRANCH   8  11
ENDBRANCH   1   8
TORSDOF 7
ENDMDL
MODEL 2
REMARK VINA RESULT:      -3.6     10.572     11.609
REMARK SMILES O=C(O)[C@@H](O)[C@@H](O)C(=O)O
REMARK SMILES IDX 4 1 2 2 1 3 3 4 5 6 6 8 7 9 8 11 9 12 10 13
REMARK H PARENT 3 5 5 7 7 10 10 14
ROOT
ATOM      1  C   UNL     1      52.041   8.312  13.783  1.00  0.00    +0.264 C 
ENDROOT
BRANCH   1   2
ATOM      2  C   UNL     1      51.588   9.398  14.753  1.00  0.00    +0.335 C 
ATOM      3  O   UNL     1      50.674   9.283  15.552  1.00  0.00    -0.249 OA
BRANCH   2   4
ATOM      4  O   UNL     1      52.301  10.540  14.590  1.00  0.00    -0.479 OA
ATOM      5  H   UNL     1      51.699  11.319  14.580  1.00  0.00    +0.296 HD
ENDBRANCH   2   4
ENDBRANCH   1   2
BRANCH   1   6
ATOM      6  O   UNL     1      51.992   7.014  14.399  1.00  0.00    -0.379 OA
ATOM      7  H   UNL     1      51.153   6.591  14.104  1.00  0.00    +0.211 HD
ENDBRANCH   1   6
BRANCH   1   8
ATOM      8  C   UNL     1      51.249   8.367  12.473  1.00  0.00    +0.264 C 
BRANCH   8   9
ATOM      9  O   UNL     1      50.588   9.634  12.329  1.00  0.00    -0.379 OA
ATOM     10  H   UNL     1      49.714   9.550  12.763  1.00  0.00    +0.211 HD
ENDBRANCH   8   9
BRANCH   8  11
ATOM     11  C   UNL     1      52.157   8.194  11.264  1.00  0.00    +0.335 C 
ATOM     12  O   UNL     1      51.945   7.407  10.351  1.00  0.00    -0.249 OA
BRANCH  11  13
ATOM     13  O   UNL     1      53.284   8.935  11.358  1.00  0.00    -0.479 OA
ATOM     14  H   UNL     1      53.820   8.659  12.133  1.00  0.00    +0.296 HD
ENDBRANCH  11  13
ENDBRANCH   8  11
ENDBRANCH   1   8
TORSDOF 7
ENDMDL
MODEL 3
REMARK VINA RESULT:      -3.6     10.565     11.891
REMARK SMILES O=C(O)[C@@H](O)[C@@H](O)C(=O)O
REMARK SMILES IDX 4 1 2 2 1 3 3 4 5 6 6 8 7 9 8 11 9 12 10 13
REMARK H PARENT 3 5 5 7 7 10 10 14
ROOT
ATOM      1  C   UNL     1      51.167   9.572  14.134  1.00  0.00    +0.264 C 
ENDROOT
BRANCH   1   2
ATOM      2  C   UNL     1      50.723   8.745  15.337  1.00  0.00    +0.335 C 
ATOM      3  O   UNL     1      49.629   8.822  15.872  1.00  0.00    -0.249 OA
BRANCH   2   4
ATOM      4  O   UNL     1      51.717   7.933  15.777  1.00  0.00    -0.479 OA
ATOM      5  H   UNL     1      51.979   8.182  16.693  1.00  0.00    +0.296 HD
ENDBRANCH   2   4
ENDBRANCH   1   2
BRANCH   1   6
ATOM      6  O   UNL     1      52.488  10.103  14.331  1.00  0.00    -0.379 OA
ATOM      7  H   UNL     1      52.379  11.058  14.551  1.00  0.00    +0.211 HD
ENDBRANCH   1   6
BRANCH   1   8
ATOM      8  C   UNL     1      51.045   8.774  12.833  1.00  0.00    +0.264 C 
BRANCH   8   9
ATOM      9  O   UNL     1      50.608   9.619  11.755  1.00  0.00    -0.379 OA
ATOM     10  H   UNL     1      51.403  10.080  11.416  1.00  0.00    +0.211 HD
ENDBRANCH   8   9
BRANCH   8  11
ATOM     11  C   UNL     1      52.380   8.173  12.419  1.00  0.00    +0.335 C 
ATOM     12  O   UNL     1      52.913   7.227  12.984  1.00  0.00    -0.249 OA
BRANCH  11  13
ATOM     13  O   UNL     1      52.968   8.866  11.417  1.00  0.00    -0.479 OA
ATOM     14  H   UNL     1      53.927   8.987  11.593  1.00  0.00    +0.296 HD
ENDBRANCH  11  13
ENDBRANCH   8  11
ENDBRANCH   1   8
TORSDOF 7
ENDMDL
MODEL 4
REMARK VINA RESULT:      -3.5     10.903     12.207
REMARK SMILES O=C(O)[C@@H](O)[C@@H](O)C(=O)O
REMARK SMILES IDX 4 1 2 2 1 3 3 4 5 6 6 8 7 9 8 11 9 12 10 13
REMARK H PARENT 3 5 5 7 7 10 10 14
ROOT
ATOM      1  C   UNL     1      50.709   9.161  13.250  1.00  0.00    +0.264 C 
ENDROOT
BRANCH   1   2
ATOM      2  C   UNL     1      51.339   8.589  11.984  1.00  0.00    +0.335 C 
ATOM      3  O   UNL     1      50.770   7.858  11.190  1.00  0.00    -0.249 OA
BRANCH   2   4
ATOM      4  O   UNL     1      52.640   8.956  11.865  1.00  0.00    -0.479 OA
ATOM      5  H   UNL     1      52.867   9.630  12.545  1.00  0.00    +0.296 HD
ENDBRANCH   2   4
ENDBRANCH   1   2
BRANCH   1   6
ATOM      6  O   UNL     1      49.527   8.429  13.617  1.00  0.00    -0.379 OA
ATOM      7  H   UNL     1      48.989   9.027  14.186  1.00  0.00    +0.211 HD
ENDBRANCH   1   6
BRANCH   1   8
ATOM      8  C   UNL     1      51.726   9.241  14.393  1.00  0.00    +0.264 C 
BRANCH   8   9
ATOM      9  O   UNL     1      52.247  10.574  14.521  1.00  0.00    -0.379 OA
ATOM     10  H   UNL     1      52.305  10.765  15.479  1.00  0.00    +0.211 HD
ENDBRANCH   8   9
BRANCH   8  11
ATOM     11  C   UNL     1      51.094   8.875  15.728  1.00  0.00    +0.335 C 
ATOM     12  O   UNL     1      50.432   9.645  16.410  1.00  0.00    -0.249 OA
BRANCH  11  13
ATOM     13  O   UNL     1      51.431   7.629  16.132  1.00  0.00    -0.479 OA
ATOM     14  H   UNL     1      51.512   7.023  15.362  1.00  0.00    +0.296 HD
ENDBRANCH  11  13
ENDBRANCH   8  11
ENDBRANCH   1   8
TORSDOF 7
ENDMDL
MODEL 5
REMARK VINA RESULT:      -3.5     10.755     11.919
REMARK SMILES O=C(O)[C@@H](O)[C@@H](O)C(=O)O
REMARK SMILES IDX 4 1 2 2 1 3 3 4 5 6 6 8 7 9 8 11 9 12 10 13
REMARK H PARENT 3 5 5 7 7 10 10 14
ROOT
ATOM      1  C   UNL     1      51.786   7.949  12.561  1.00  0.00    +0.264 C 
ENDROOT
BRANCH   1   2
ATOM      2  C   UNL     1      52.242   8.289  11.146  1.00  0.00    +0.335 C 
ATOM      3  O   UNL     1      51.638   7.992  10.128  1.00  0.00    -0.249 OA
BRANCH   2   4
ATOM      4  O   UNL     1      53.437   8.930  11.148  1.00  0.00    -0.479 OA
ATOM      5  H   UNL     1      53.337   9.838  10.782  1.00  0.00    +0.296 HD
ENDBRANCH   2   4
ENDBRANCH   1   2
BRANCH   1   6
ATOM      6  O   UNL     1      52.899   7.562  13.385  1.00  0.00    -0.379 OA
ATOM      7  H   UNL     1      52.854   6.583  13.481  1.00  0.00    +0.211 HD
ENDBRANCH   1   6
BRANCH   1   8
ATOM      8  C   UNL     1      50.972   9.091  13.176  1.00  0.00    +0.264 C 
BRANCH   8   9
ATOM      9  O   UNL     1      49.590   8.720  13.308  1.00  0.00    -0.379 OA
ATOM     10  H   UNL     1      49.231   9.228  14.064  1.00  0.00    +0.211 HD
ENDBRANCH   8   9
BRANCH   8  11
ATOM     11  C   UNL     1      51.476   9.450  14.566  1.00  0.00    +0.335 C 
ATOM     12  O   UNL     1      51.109   8.899  15.595  1.00  0.00    -0.249 OA
BRANCH  11  13
ATOM     13  O   UNL     1      52.303  10.520  14.553  1.00  0.00    -0.479 OA
ATOM     14  H   UNL     1      52.069  11.132  13.821  1.00  0.00    +0.296 HD
ENDBRANCH  11  13
ENDBRANCH   8  11
ENDBRANCH   1   8
TORSDOF 7
ENDMDL
MODEL 6
REMARK VINA RESULT:      -3.5      1.286      3.823
REMARK SMILES O=C(O)[C@@H](O)[C@@H](O)C(=O)O
REMARK SMILES IDX 4 1 2 2 1 3 3 4 5 6 6 8 7 9 8 11 9 12 10 13
REMARK H PARENT 3 5 5 7 7 10 10 14
ROOT
ATOM      1  C   UNL     1      47.341  17.616   7.373  1.00  0.00    +0.264 C 
ENDROOT
BRANCH   1   2
ATOM      2  C   UNL     1      47.794  16.488   6.450  1.00  0.00    +0.335 C 
ATOM      3  O   UNL     1      48.008  15.341   6.803  1.00  0.00    -0.249 OA
BRANCH   2   4
ATOM      4  O   UNL     1      47.978  16.928   5.180  1.00  0.00    -0.479 OA
ATOM      5  H   UNL     1      47.407  17.710   5.004  1.00  0.00    +0.296 HD
ENDBRANCH   2   4
ENDBRANCH   1   2
BRANCH   1   6
ATOM      6  O   UNL     1      47.779  18.894   6.881  1.00  0.00    -0.379 OA
ATOM      7  H   UNL     1      46.980  19.349   6.525  1.00  0.00    +0.211 HD
ENDBRANCH   1   6
BRANCH   1   8
ATOM      8  C   UNL     1      45.830  17.568   7.614  1.00  0.00    +0.264 C 
BRANCH   8   9
ATOM      9  O   UNL     1      45.517  17.931   8.968  1.00  0.00    -0.379 OA
ATOM     10  H   UNL     1      46.343  18.273   9.369  1.00  0.00    +0.211 HD
ENDBRANCH   8   9
BRANCH   8  11
ATOM     11  C   UNL     1      45.089  18.538   6.705  1.00  0.00    +0.335 C 
ATOM     12  O   UNL     1      44.369  19.443   7.107  1.00  0.00    -0.249 OA
BRANCH  11  13
ATOM     13  O   UNL     1      45.230  18.227   5.397  1.00  0.00    -0.479 OA
ATOM     14  H   UNL     1      45.136  19.028   4.836  1.00  0.00    +0.296 HD
ENDBRANCH  11  13
ENDBRANCH   8  11
ENDBRANCH   1   8
TORSDOF 7
ENDMDL
MODEL 7
REMARK VINA RESULT:      -3.5     11.073     12.594
REMARK SMILES O=C(O)[C@@H](O)[C@@H](O)C(=O)O
REMARK SMILES IDX 4 1 2 2 1 3 3 4 5 6 6 8 7 9 8 11 9 12 10 13
REMARK H PARENT 3 5 5 7 7 10 10 14
ROOT
ATOM      1  C   UNL     1      51.945   9.138  14.331  1.00  0.00    +0.264 C 
ENDROOT
BRANCH   1   2
ATOM      2  C   UNL     1      51.363   9.035  12.924  1.00  0.00    +0.335 C 
ATOM      3  O   UNL     1      50.174   8.959  12.664  1.00  0.00    -0.249 OA
BRANCH   2   4
ATOM      4  O   UNL     1      52.340   8.990  11.984  1.00  0.00    -0.479 OA
ATOM      5  H   UNL     1      52.298   9.790  11.412  1.00  0.00    +0.296 HD
ENDBRANCH   2   4
ENDBRANCH   1   2
BRANCH   1   6
ATOM      6  O   UNL     1      52.135  10.512  14.712  1.00  0.00    -0.379 OA
ATOM      7  H   UNL     1      51.261  10.956  14.616  1.00  0.00    +0.211 HD
ENDBRANCH   1   6
BRANCH   1   8
ATOM      8  C   UNL     1      51.099   8.362  15.343  1.00  0.00    +0.264 C 
BRANCH   8   9
ATOM      9  O   UNL     1      51.907   7.425  16.073  1.00  0.00    -0.379 OA
ATOM     10  H   UNL     1      52.195   6.740  15.434  1.00  0.00    +0.211 HD
ENDBRANCH   8   9
BRANCH   8  11
ATOM     11  C   UNL     1      50.457   9.292  16.364  1.00  0.00    +0.335 C 
ATOM     12  O   UNL     1      49.308   9.706  16.290  1.00  0.00    -0.249 OA
BRANCH  11  13
ATOM     13  O   UNL     1      51.332   9.695  17.313  1.00  0.00    -0.479 OA
ATOM     14  H   UNL     1      51.206   9.184  18.142  1.00  0.00    +0.296 HD
ENDBRANCH  11  13
ENDBRANCH   8  11
ENDBRANCH   1   8
TORSDOF 7
ENDMDL
MODEL 8
REMARK VINA RESULT:      -3.4      0.971      3.664
REMARK SMILES O=C(O)[C@@H](O)[C@@H](O)C(=O)O
REMARK SMILES IDX 4 1 2 2 1 3 3 4 5 6 6 8 7 9 8 11 9 12 10 13
REMARK H PARENT 3 5 5 7 7 10 10 14
ROOT
ATOM      1  C   UNL     1      48.301  16.274   6.049  1.00  0.00    +0.264 C 
ENDROOT
BRANCH   1   2
ATOM      2  C   UNL     1      48.565  14.833   5.627  1.00  0.00    +0.335 C 
ATOM      3  O   UNL     1      48.367  13.853   6.325  1.00  0.00    -0.249 OA
BRANCH   2   4
ATOM      4  O   UNL     1      49.096  14.769   4.380  1.00  0.00    -0.479 OA
ATOM      5  H   UNL     1      49.278  13.833   4.135  1.00  0.00    +0.296 HD
ENDBRANCH   2   4
ENDBRANCH   1   2
BRANCH   1   6
ATOM      6  O   UNL     1      48.886  17.202   5.120  1.00  0.00    -0.379 OA
ATOM      7  H   UNL     1      48.363  17.136   4.287  1.00  0.00    +0.211 HD
ENDBRANCH   1   6
BRANCH   1   8
ATOM      8  C   UNL     1      46.807  16.528   6.267  1.00  0.00    +0.264 C 
BRANCH   8   9
ATOM      9  O   UNL     1      46.160  15.355   6.785  1.00  0.00    -0.379 OA
ATOM     10  H   UNL     1      45.235  15.606   6.986  1.00  0.00    +0.211 HD
ENDBRANCH   8   9
BRANCH   8  11
ATOM     11  C   UNL     1      46.571  17.651   7.267  1.00  0.00    +0.335 C 
ATOM     12  O   UNL     1      45.720  17.622   8.146  1.00  0.00    -0.249 OA
BRANCH  11  13
ATOM     13  O   UNL     1      47.339  18.735   7.014  1.00  0.00    -0.479 OA
ATOM     14  H   UNL     1      46.889  19.557   7.306  1.00  0.00    +0.296 HD
ENDBRANCH  11  13
ENDBRANCH   8  11
ENDBRANCH   1   8
TORSDOF 7
ENDMDL
MODEL 9
REMARK VINA RESULT:      -3.4     11.682     12.753
REMARK SMILES O=C(O)[C@@H](O)[C@@H](O)C(=O)O
REMARK SMILES IDX 4 1 2 2 1 3 3 4 5 6 6 8 7 9 8 11 9 12 10 13
REMARK H PARENT 3 5 5 7 7 10 10 14
ROOT
ATOM      1  C   UNL     1      50.456   9.663  16.630  1.00  0.00    +0.264 C 
ENDROOT
BRANCH   1   2
ATOM      2  C   UNL     1      49.018   9.412  17.074  1.00  0.00    +0.335 C 
ATOM      3  O   UNL     1      48.066  10.120  16.791  1.00  0.00    -0.249 OA
BRANCH   2   4
ATOM      4  O   UNL     1      48.927   8.316  17.869  1.00  0.00    -0.479 OA
ATOM      5  H   UNL     1      48.684   7.526  17.334  1.00  0.00    +0.296 HD
ENDBRANCH   2   4
ENDBRANCH   1   2
BRANCH   1   6
ATOM      6  O   UNL     1      51.357   9.627  17.750  1.00  0.00    -0.379 OA
ATOM      7  H   UNL     1      51.652   8.692  17.846  1.00  0.00    +0.211 HD
ENDBRANCH   1   6
BRANCH   1   8
ATOM      8  C   UNL     1      50.872   8.701  15.514  1.00  0.00    +0.264 C 
BRANCH   8   9
ATOM      9  O   UNL     1      49.720   8.091  14.909  1.00  0.00    -0.379 OA
ATOM     10  H   UNL     1      49.934   7.956  13.963  1.00  0.00    +0.211 HD
ENDBRANCH   8   9
BRANCH   8  11
ATOM     11  C   UNL     1      51.630   9.423  14.409  1.00  0.00    +0.335 C 
ATOM     12  O   UNL     1      51.715   9.021  13.256  1.00  0.00    -0.249 OA
BRANCH  11  13
ATOM     13  O   UNL     1      52.290  10.512  14.865  1.00  0.00    -0.479 OA
ATOM     14  H   UNL     1      51.780  11.331  14.680  1.00  0.00    +0.296 HD
ENDBRANCH  11  13
ENDBRANCH   8  11
ENDBRANCH   1   8
TORSDOF 7
ENDMDL
