          AutoDock 4.2 Release 4.2.6   
         (C) 1989-2012 The Scripps Research Institute
        AutoDock comes with ABSOLUTELY NO WARRANTY.
        AutoDock is free software, and you are welcome
        to redistribute it under certain conditions;
        for details type 'autodock4 -C'

                     main.cc  $Revision: 1.213 $

                   Compiled on Dec 11 2024 at 15:52:35


This file was created at:			4:21 42" p.m., 09/11/2026
                   on host:		"VP"
Current Working Directory = "/home/vishishtaapandit28/docking-pipeline-project/results/3BH4/ad4_grids"

      ________________________________________________________________

                   SETTING UP DEFAULT PARAMETER LIBRARY
      ________________________________________________________________


Random number generator was seeded with values 73141, 1789123902.
Docking parameter file (DPF) used for this docking:		ascorbic_acid.dpf
DPF> autodock_parameter_version 4.2

	Autodock parameter version 4.2.
DPF> outlev 1

Output Level = 1  ADT-COMPATIBLE OUTPUT DURING DOCKING.
DPF> intelec

Electrostatic energies will be calculated for all non-bonds between moving atoms.
DPF> seed pid time

Random number generator was seeded with values 73141, 1789123902.
DPF> ligand_types C HD OA

DPF> fld receptor.maps.fld

Opening Grid Map Dimensions file:		receptor.maps.fld
Grid Point Spacing =				0.375 Angstroms

Even Number of User-specified Grid Points =	54 x-points
						54 y-points
						54 z-points

Coordinates of Central Grid Point of Maps =	(53.838, 11.958, 13.914)
Macromolecule file used to create Grid Maps =	receptor.pdbqt
Grid Parameter file used to create Grid Maps =	receptor.gpf
Minimum coordinates in grid = (43.713, 1.833, 3.789)
Maximum coordinates in grid = (63.963, 22.083, 24.039)

DPF> map receptor.C.map

DPF> map receptor.HD.map

DPF> map receptor.OA.map

DPF> elecmap receptor.e.map

DPF> desolvmap receptor.d.map

DPF> move ascorbic_acid.pdbqt

1,4-interactions will be _ignored_ in the non-bonded internal energy calculation.

Ligand PDBQT file = "ascorbic_acid.pdbqt"

INPUT LIGAND PDBQT FILE:
________________________

INPUT-LIGAND-PDBQT: REMARK SMILES O=C1O[C@@H]([C@@H](O)CO)C(O)=C1O
INPUT-LIGAND-PDBQT: REMARK SMILES IDX 5 1 4 2 9 3 11 4 2 5 3 6 1 7 10 8 12 10 6 12 7 14 8 15
INPUT-LIGAND-PDBQT: REMARK H PARENT 10 9 12 11 6 13 8 16
INPUT-LIGAND-PDBQT: ROOT
INPUT-LIGAND-PDBQT: ATOM      1  C   UNL     1       2.724   2.219  -0.772  1.00  0.00    +0.188 C 
INPUT-LIGAND-PDBQT: ENDROOT
INPUT-LIGAND-PDBQT: BRANCH   1   2
INPUT-LIGAND-PDBQT: ATOM      2  C   UNL     1       3.088   1.128   0.258  1.00  0.00    +0.277 C 
INPUT-LIGAND-PDBQT: ATOM      3  C   UNL     1       2.307  -0.132   0.135  1.00  0.00    +0.186 C 
INPUT-LIGAND-PDBQT: ATOM      4  C   UNL     1       3.093  -1.171  -0.133  1.00  0.00    +0.244 C 
INPUT-LIGAND-PDBQT: ATOM      5  C   UNL     1       4.472  -0.647  -0.205  1.00  0.00    +0.377 C 
INPUT-LIGAND-PDBQT: ATOM      6  O   UNL     1       4.443   0.696   0.047  1.00  0.00    -0.445 OA
INPUT-LIGAND-PDBQT: ATOM      7  O   UNL     1       5.479  -1.292  -0.427  1.00  0.00    -0.242 OA
INPUT-LIGAND-PDBQT: BRANCH   3   8
INPUT-LIGAND-PDBQT: ATOM      8  O   UNL     1       0.954  -0.142   0.337  1.00  0.00    -0.505 OA
INPUT-LIGAND-PDBQT: ATOM      9  H   UNL     1       0.557  -0.890  -0.140  1.00  0.00    +0.293 HD
INPUT-LIGAND-PDBQT: ENDBRANCH   3   8
INPUT-LIGAND-PDBQT: BRANCH   4  10
INPUT-LIGAND-PDBQT: ATOM     10  O   UNL     1       2.755  -2.487  -0.262  1.00  0.00    -0.499 OA
INPUT-LIGAND-PDBQT: ATOM     11  H   UNL     1       1.859  -2.617   0.086  1.00  0.00    +0.294 HD
INPUT-LIGAND-PDBQT: ENDBRANCH   4  10
INPUT-LIGAND-PDBQT: ENDBRANCH   1   2
INPUT-LIGAND-PDBQT: BRANCH   1  12
INPUT-LIGAND-PDBQT: ATOM     12  O   UNL     1       1.377   2.682  -0.604  1.00  0.00    -0.386 OA
INPUT-LIGAND-PDBQT: ATOM     13  H   UNL     1       1.318   3.147   0.251  1.00  0.00    +0.211 HD
INPUT-LIGAND-PDBQT: ENDBRANCH   1  12
INPUT-LIGAND-PDBQT: BRANCH   1  14
INPUT-LIGAND-PDBQT: ATOM     14  C   UNL     1       3.684   3.418  -0.670  1.00  0.00    +0.192 C 
INPUT-LIGAND-PDBQT: BRANCH  14  15
INPUT-LIGAND-PDBQT: ATOM     15  O   UNL     1       3.315   4.468  -1.563  1.00  0.00    -0.394 OA
INPUT-LIGAND-PDBQT: ATOM     16  H   UNL     1       2.902   4.067  -2.349  1.00  0.00    +0.210 HD
INPUT-LIGAND-PDBQT: ENDBRANCH  14  15
INPUT-LIGAND-PDBQT: ENDBRANCH   1  14
INPUT-LIGAND-PDBQT: TORSDOF 6
________________________________________________________________________________

Total charge on ligand                               =	+0.001 e
REMARK SMILES O=C1O[C@@H]([C@@H](O)CO)C(O)=C1O
REMARK SMILES IDX 5 1 4 2 9 3 11 4 2 5 3 6 1 7 10 8 12 10 6 12 7 14 8 15
REMARK H PARENT 10 9 12 11 6 13 8 16


Number of Rotatable Bonds in Small Molecule =	6 torsions
Number of atoms in ligand:  16

Number of non-hydrogen atoms in ligand:  12

Number of vibrational degrees of freedom of ligand:  42


Number of torsional degrees of freedom = 6
Estimated loss of torsional free energy upon binding = +1.7898 kcal/mol


DPF> about 2.7704375 0.7779375 -0.3756875

Small molecule center of rotation =	(+2.770, +0.778, -0.376)

DPF> tran0 random

Initial translation =			(60.041, 15.258, 20.086) Angstroms
DPF> quat0 random

Each run will begin with a new, random initial orientation.
Initial quaternion,  (x,y,z,w) =	( -0.240, -0.768, -0.194, 0.562 ),
DPF> dihe0 random

DPF> tstep 2.0

Initial simanneal cycle, maximum translation step = +/- 2.0 Angstroms
DPF> qstep 50.0

Initial simanneal cycle, maximum quaternion angle step = +/- 50.0 deg
DPF> dstep 50.0

Initial simanneal cycle, maximum torsion angle step = +/- 50.0 deg
DPF> torsdof 6

Number of torsional degrees of freedom = 6
Free energy coefficient for torsional degrees of freedom = 0.2983, the factory default value.

Estimated loss of torsional free energy upon binding = +1.7898 kcal/mol

DPF> rmstol 2.0

Maximum RMS tolerance for conformational cluster analysis = 2.00 Angstroms
DPF> extnrg 1000.0

External grid energy (beyond grid map walls) = 1000.00

DPF> e0max 0.0 10000

Using user-specified maximum number of retries for simanneal initialization, 10000 retries.
If the simanneal initial energy is greater than e0max, 0.000,
then a new, random initial state will be created.

DPF> ga_pop_size 150

A population of 150 individuals will be used
DPF> ga_num_evals 2500000

There will be at most 2500000 function evaluations used.
DPF> ga_num_generations 27000

The GA will run for at most 27000 generations.
DPF> ga_elitism 1

The 1 best will be preserved each GA generation.
DPF> ga_mutation_rate 0.02

The mutation rate is 0.020000.
DPF> ga_crossover_rate 0.8

The crossover rate is 0.800000.
DPF> ga_window_size 10

The GA's selection window is 10 generations.
DPF> ga_cauchy_alpha 0.0

The alpha parameter (for the Cauchy distribution) is being set to 0.000000.
DPF> ga_cauchy_beta 1.0

The beta parameter (for the Cauchy distribution) is being set to 1.000000.
DPF> set_ga

DPF> sw_max_its 300

Solis & Wets algorithms will perform at most 300 iterations.
DPF> sw_max_succ 4

Solis & Wets algorithms expand rho every 4 in a row successes.
DPF> sw_max_fail 4

Solis & Wets algorithms contract rho every 4 in a row failures.
DPF> sw_rho 1.0

rho is set to 1.000000.
DPF> sw_lb_rho 0.01

rho will never get smaller than 0.010000.
DPF> ls_search_freq 0.06

Local search will be performed with frequency 0.060000.
DPF> set_psw1

Creating a new Local Search object using the pseudo-Solis-Wets algorithm (pSW1) with the current settings.

DPF> unbound_model bound

DPF> ga_run 10

centering ligand on specified point: 2.770 0.778 -0.376
Furthest true ligand atom from "about" center is 3.914 Angstroms (maxrad).
Number of requested GA dockings = 10 runs
Unbound model to be used is 'same as bound' [AutoDock 4.2 default].

	BEGINNING GENETIC ALGORITHM DOCKING 1 of 10
Run: 1 Seed: 623699755 1037877303 [ Run 1 of 10 GA/GALS ]
Beginning LAMARCKIAN GENETIC ALGORITHM (LGA), with a maximum of 2500000 energy evaluations.

Final-Value: -6.629


	FINAL GENETIC ALGORITHM DOCKED STATE
	_______________________________________________


Detailed state:  trans 51.354 9.770 20.750 quatxyzw -0.513752 0.318580 -0.737489 -0.301124 center 2.770 0.778 -0.376 ntor 6 -49.5690 -167.7164 -52.3543 0.4629 92.1904 -148.7605
State:	 51.354   9.770  20.750  -0.539  0.334 -0.773 -144.950    -49.57 -167.72  -52.35    0.46   92.19 -148.76

DOCKED: MODEL        1
DOCKED: USER    Run = 1
DOCKED: USER    DPF = ascorbic_acid.dpf
DOCKED: USER  
DOCKED: USER    Estimated Free Energy of Binding    =   -2.00 kcal/mol  [=(1)+(2)+(3)-(4)]
DOCKED: USER    Estimated Inhibition Constant, Ki   =   34.40 mM (millimolar)  [Temperature = 298.15 K]
DOCKED: USER    
DOCKED: USER    (1) Final Intermolecular Energy     =   -3.79 kcal/mol
DOCKED: USER        vdW + Hbond + desolv Energy     =   -3.62 kcal/mol
DOCKED: USER        Electrostatic Energy            =   -0.16 kcal/mol
DOCKED: USER    (2) Final Total Internal Energy     =   -2.84 kcal/mol
DOCKED: USER    (3) Torsional Free Energy           =   +1.79 kcal/mol
DOCKED: USER    (4) Unbound System's Energy  [=(2)] =   -2.84 kcal/mol
DOCKED: USER    
DOCKED: USER    
DOCKED: USER    NEWDPF move ascorbic_acid.pdbqt
DOCKED: USER    NEWDPF about 2.770437 0.777937 -0.375688
DOCKED: USER    NEWDPF tran0 51.354043 9.770069 20.750466
DOCKED: USER    NEWDPF quaternion0 -0.513752 0.318580 -0.737489 -0.301124
DOCKED: USER    NEWDPF axisangle0 -0.538759 0.334086 -0.773386 -144.949724
DOCKED: USER    NEWDPF quat0 -0.538759 0.334086 -0.773386 -144.949724
DOCKED: USER    NEWDPF dihe0 -49.57 -167.72 -52.35 0.46 92.19 -148.76 
DOCKED: USER  keepresnum = 1 
DOCKED: USER  
DOCKED: REMARK SMILES O=C1O[C@@H]([C@@H](O)CO)C(O)=C1O
DOCKED: REMARK SMILES IDX 5 1 4 2 9 3 11 4 2 5 3 6 1 7 10 8 12 10 6 12 7 14 8 15
DOCKED: REMARK H PARENT 10 9 12 11 6 13 8 16
DOCKED: USER                              x       y       z     vdW  Elec       q    Type
DOCKED: USER                           _______ _______ _______ _____ _____    ______ ____
DOCKED: ROOT
DOCKED: ATOM      1  C   UNL     1      51.160   8.982  19.495 -0.18 -0.06    +0.188 C 
DOCKED: ENDROOT
DOCKED: BRANCH   1   2
DOCKED: ATOM      2  C   UNL     1      51.904   9.208  20.828 -0.13 -0.09    +0.277 C 
DOCKED: ATOM      3  C   UNL     1      53.082   8.325  21.042 -0.14 -0.06    +0.186 C 
DOCKED: ATOM      4  C   UNL     1      54.207   9.027  21.153 -0.22 -0.09    +0.244 C 
DOCKED: ATOM      5  C   UNL     1      53.830  10.448  21.015 -0.19 -0.07    +0.377 C 
DOCKED: ATOM      6  O   UNL     1      52.476  10.527  20.846 -0.36 +0.09    -0.445 OA
DOCKED: ATOM      7  O   UNL     1      54.581  11.403  21.065 -0.80 +0.03    -0.242 OA
DOCKED: BRANCH   3   8
DOCKED: ATOM      8  O   UNL     1      52.933   6.969  21.149 +0.01 +0.15    -0.505 OA
DOCKED: ATOM      9  H   UNL     1      53.241   6.540  20.333 +0.06 -0.09    +0.293 HD
DOCKED: ENDBRANCH   3   8
DOCKED: BRANCH   4  10
DOCKED: ATOM     10  O   UNL     1      55.471   8.581  21.407 -0.06 +0.25    -0.499 OA
DOCKED: ATOM     11  H   UNL     1      56.078   9.337  21.402 -0.40 -0.22    +0.294 HD
DOCKED: ENDBRANCH   4  10
DOCKED: ENDBRANCH   1   2
DOCKED: BRANCH   1  12
DOCKED: ATOM     12  O   UNL     1      51.765   9.709  18.417 -0.12 +0.15    -0.386 OA
DOCKED: ATOM     13  H   UNL     1      52.646  10.009  18.707 -0.45 -0.10    +0.211 HD
DOCKED: ENDBRANCH   1  12
DOCKED: BRANCH   1  14
DOCKED: ATOM     14  C   UNL     1      51.117   7.487  19.131 -0.07 -0.06    +0.192 C 
DOCKED: BRANCH  14  15
DOCKED: ATOM     15  O   UNL     1      52.304   7.074  18.456 -0.06 +0.15    -0.394 OA
DOCKED: ATOM     16  H   UNL     1      52.644   7.832  17.947 -0.51 -0.14    +0.210 HD
DOCKED: ENDBRANCH  14  15
DOCKED: ENDBRANCH   1  14
DOCKED: TORSDOF 6
DOCKED: TER
DOCKED: ENDMDL
________________________________________________________________________________


	BEGINNING GENETIC ALGORITHM DOCKING 2 of 10
Run: 2 Seed: 1731553288 1423658017 [ Run 2 of 10 GA/GALS ]
Beginning LAMARCKIAN GENETIC ALGORITHM (LGA), with a maximum of 2500000 energy evaluations.

Final-Value: -6.760


	FINAL GENETIC ALGORITHM DOCKED STATE
	_______________________________________________


Detailed state:  trans 50.257 9.649 14.795 quatxyzw -0.082880 -0.468308 0.771567 0.422496 center 2.770 0.778 -0.376 ntor 6 31.7966 35.5310 3.6536 -5.0807 73.2161 -80.4442
State:	 50.257   9.649  14.795  -0.091 -0.517  0.851 130.015     31.80   35.53    3.65   -5.08   73.22  -80.44

DOCKED: MODEL        2
DOCKED: USER    Run = 2
DOCKED: USER    DPF = ascorbic_acid.dpf
DOCKED: USER  
DOCKED: USER    Estimated Free Energy of Binding    =   -2.55 kcal/mol  [=(1)+(2)+(3)-(4)]
DOCKED: USER    Estimated Inhibition Constant, Ki   =   13.43 mM (millimolar)  [Temperature = 298.15 K]
DOCKED: USER    
DOCKED: USER    (1) Final Intermolecular Energy     =   -4.34 kcal/mol
DOCKED: USER        vdW + Hbond + desolv Energy     =   -3.68 kcal/mol
DOCKED: USER        Electrostatic Energy            =   -0.67 kcal/mol
DOCKED: USER    (2) Final Total Internal Energy     =   -2.42 kcal/mol
DOCKED: USER    (3) Torsional Free Energy           =   +1.79 kcal/mol
DOCKED: USER    (4) Unbound System's Energy  [=(2)] =   -2.42 kcal/mol
DOCKED: USER    
DOCKED: USER    
DOCKED: USER    NEWDPF move ascorbic_acid.pdbqt
DOCKED: USER    NEWDPF about 2.770437 0.777937 -0.375688
DOCKED: USER    NEWDPF tran0 50.257103 9.649125 14.795381
DOCKED: USER    NEWDPF quaternion0 -0.082880 -0.468308 0.771567 0.422496
DOCKED: USER    NEWDPF axisangle0 -0.091442 -0.516688 0.851276 130.015489
DOCKED: USER    NEWDPF quat0 -0.091442 -0.516688 0.851276 130.015489
DOCKED: USER    NEWDPF dihe0 31.80 35.53 3.65 -5.08 73.22 -80.44 
DOCKED: USER  keepresnum = 1 
DOCKED: USER  
DOCKED: REMARK SMILES O=C1O[C@@H]([C@@H](O)CO)C(O)=C1O
DOCKED: REMARK SMILES IDX 5 1 4 2 9 3 11 4 2 5 3 6 1 7 10 8 12 10 6 12 7 14 8 15
DOCKED: REMARK H PARENT 10 9 12 11 6 13 8 16
DOCKED: USER                              x       y       z     vdW  Elec       q    Type
DOCKED: USER                           _______ _______ _______ _____ _____    ______ ____
DOCKED: ROOT
DOCKED: ATOM      1  C   UNL     1      51.232   9.695  13.662 -0.30 +0.05    +0.188 C 
DOCKED: ENDROOT
DOCKED: BRANCH   1   2
DOCKED: ATOM      2  C   UNL     1      50.482   8.893  14.748 -0.12 +0.01    +0.277 C 
DOCKED: ATOM      3  C   UNL     1      51.307   8.518  15.928 -0.15 -0.01    +0.186 C 
DOCKED: ATOM      4  C   UNL     1      50.830   9.054  17.048 -0.20 -0.04    +0.244 C 
DOCKED: ATOM      5  C   UNL     1      49.635   9.832  16.666 -0.12 -0.03    +0.377 C 
DOCKED: ATOM      6  O   UNL     1      49.442   9.705  15.319 +0.02 -0.02    -0.445 OA
DOCKED: ATOM      7  O   UNL     1      48.917  10.467  17.415 -0.44 +0.05    -0.242 OA
DOCKED: BRANCH   3   8
DOCKED: ATOM      8  O   UNL     1      52.380   7.680  15.797 +0.04 +0.06    -0.505 OA
DOCKED: ATOM      9  H   UNL     1      52.731   7.457  16.675 -0.48 -0.11    +0.293 HD
DOCKED: ENDBRANCH   3   8
DOCKED: BRANCH   4  10
DOCKED: ATOM     10  O   UNL     1      51.278   8.896  18.328 -0.10 +0.17    -0.499 OA
DOCKED: ATOM     11  H   UNL     1      52.204   8.607  18.304 -0.40 -0.17    +0.294 HD
DOCKED: ENDBRANCH   4  10
DOCKED: ENDBRANCH   1   2
DOCKED: BRANCH   1  12
DOCKED: ATOM     12  O   UNL     1      52.462  10.241  14.157 -0.33 -0.93    -0.386 OA
DOCKED: ATOM     13  H   UNL     1      53.088   9.507  14.298 -0.47 +0.29    +0.211 HD
DOCKED: ENDBRANCH   1  12
DOCKED: BRANCH   1  14
DOCKED: ATOM     14  C   UNL     1      51.530   8.818  12.433 -0.19 -0.06    +0.192 C 
DOCKED: BRANCH  14  15
DOCKED: ATOM     15  O   UNL     1      52.896   8.409  12.394 -0.13 +0.11    -0.394 OA
DOCKED: ATOM     16  H   UNL     1      53.442   9.143  12.728 -0.31 -0.02    +0.210 HD
DOCKED: ENDBRANCH  14  15
DOCKED: ENDBRANCH   1  14
DOCKED: TORSDOF 6
DOCKED: TER
DOCKED: ENDMDL
________________________________________________________________________________


	BEGINNING GENETIC ALGORITHM DOCKING 3 of 10
Run: 3 Seed: 1728239040 1177204889 [ Run 3 of 10 GA/GALS ]
Beginning LAMARCKIAN GENETIC ALGORITHM (LGA), with a maximum of 2500000 energy evaluations.

Final-Value: -6.904


	FINAL GENETIC ALGORITHM DOCKED STATE
	_______________________________________________


Detailed state:  trans 52.965 7.130 12.475 quatxyzw -0.347526 0.918694 -0.026724 -0.185775 center 2.770 0.778 -0.376 ntor 6 -102.5051 -171.2229 19.1699 24.1423 100.1434 -88.7026
State:	 52.965   7.130  12.475  -0.354  0.935 -0.027 -158.587   -102.51 -171.22   19.17   24.14  100.14  -88.70

DOCKED: MODEL        3
DOCKED: USER    Run = 3
DOCKED: USER    DPF = ascorbic_acid.dpf
DOCKED: USER  
DOCKED: USER    Estimated Free Energy of Binding    =   -1.98 kcal/mol  [=(1)+(2)+(3)-(4)]
DOCKED: USER    Estimated Inhibition Constant, Ki   =   35.30 mM (millimolar)  [Temperature = 298.15 K]
DOCKED: USER    
DOCKED: USER    (1) Final Intermolecular Energy     =   -3.77 kcal/mol
DOCKED: USER        vdW + Hbond + desolv Energy     =   -3.12 kcal/mol
DOCKED: USER        Electrostatic Energy            =   -0.65 kcal/mol
DOCKED: USER    (2) Final Total Internal Energy     =   -3.13 kcal/mol
DOCKED: USER    (3) Torsional Free Energy           =   +1.79 kcal/mol
DOCKED: USER    (4) Unbound System's Energy  [=(2)] =   -3.13 kcal/mol
DOCKED: USER    
DOCKED: USER    
DOCKED: USER    NEWDPF move ascorbic_acid.pdbqt
DOCKED: USER    NEWDPF about 2.770437 0.777937 -0.375688
DOCKED: USER    NEWDPF tran0 52.964648 7.129649 12.475278
DOCKED: USER    NEWDPF quaternion0 -0.347526 0.918694 -0.026724 -0.185775
DOCKED: USER    NEWDPF axisangle0 -0.353683 0.934970 -0.027198 -158.587324
DOCKED: USER    NEWDPF quat0 -0.353683 0.934970 -0.027198 -158.587324
DOCKED: USER    NEWDPF dihe0 -102.51 -171.22 19.17 24.14 100.14 -88.70 
DOCKED: USER  keepresnum = 1 
DOCKED: USER  
DOCKED: REMARK SMILES O=C1O[C@@H]([C@@H](O)CO)C(O)=C1O
DOCKED: REMARK SMILES IDX 5 1 4 2 9 3 11 4 2 5 3 6 1 7 10 8 12 10 6 12 7 14 8 15
DOCKED: REMARK H PARENT 10 9 12 11 6 13 8 16
DOCKED: USER                              x       y       z     vdW  Elec       q    Type
DOCKED: USER                           _______ _______ _______ _____ _____    ______ ____
DOCKED: ROOT
DOCKED: ATOM      1  C   UNL     1      51.948   8.219  12.602 -0.17 -0.05    +0.188 C 
DOCKED: ENDROOT
DOCKED: BRANCH   1   2
DOCKED: ATOM      2  C   UNL     1      52.754   7.239  11.721 -0.08 -0.10    +0.277 C 
DOCKED: ATOM      3  C   UNL     1      53.737   7.884  10.810 -0.19 -0.10    +0.186 C 
DOCKED: ATOM      4  C   UNL     1      54.981   7.497  11.079 -0.15 -0.10    +0.244 C 
DOCKED: ATOM      5  C   UNL     1      54.891   6.553  12.211 -0.08 -0.12    +0.377 C 
DOCKED: ATOM      6  O   UNL     1      53.577   6.405  12.554 -0.06 +0.11    -0.445 OA
DOCKED: ATOM      7  O   UNL     1      55.819   5.977  12.746 -0.22 +0.09    -0.242 OA
DOCKED: BRANCH   3   8
DOCKED: ATOM      8  O   UNL     1      53.323   8.721   9.810 -0.08 +0.47    -0.505 OA
DOCKED: ATOM      9  H   UNL     1      52.748   9.412  10.179 -0.43 -0.52    +0.293 HD
DOCKED: ENDBRANCH   3   8
DOCKED: BRANCH   4  10
DOCKED: ATOM     10  O   UNL     1      56.136   7.825  10.431 -0.12 +0.23    -0.499 OA
DOCKED: ATOM     11  H   UNL     1      56.887   7.448  10.916 -0.48 -0.21    +0.294 HD
DOCKED: ENDBRANCH   4  10
DOCKED: ENDBRANCH   1   2
DOCKED: BRANCH   1  12
DOCKED: ATOM     12  O   UNL     1      52.646   9.456  12.798 -0.05 -0.04    -0.386 OA
DOCKED: ATOM     13  H   UNL     1      52.444  10.044  12.047 -0.42 -0.25    +0.211 HD
DOCKED: ENDBRANCH   1  12
DOCKED: BRANCH   1  14
DOCKED: ATOM     14  C   UNL     1      50.569   8.512  11.983 -0.13 -0.08    +0.192 C 
DOCKED: BRANCH  14  15
DOCKED: ATOM     15  O   UNL     1      50.664   9.421  10.887 -0.10 +0.37    -0.394 OA
DOCKED: ATOM     16  H   UNL     1      51.581   9.748  10.842 -0.36 -0.37    +0.210 HD
DOCKED: ENDBRANCH  14  15
DOCKED: ENDBRANCH   1  14
DOCKED: TORSDOF 6
DOCKED: TER
DOCKED: ENDMDL
________________________________________________________________________________


	BEGINNING GENETIC ALGORITHM DOCKING 4 of 10
Run: 4 Seed: 758952204 2034117077 [ Run 4 of 10 GA/GALS ]
Beginning LAMARCKIAN GENETIC ALGORITHM (LGA), with a maximum of 2500000 energy evaluations.

Final-Value: -7.130


	FINAL GENETIC ALGORITHM DOCKED STATE
	_______________________________________________


Detailed state:  trans 51.459 8.288 13.873 quatxyzw -0.521505 0.326428 -0.363008 -0.699787 center 2.770 0.778 -0.376 ntor 6 -102.3259 -99.2715 -6.7847 -12.8877 88.4497 -44.9534
State:	 51.459   8.288  13.873  -0.730  0.457 -0.508 -91.180   -102.33  -99.27   -6.78  -12.89   88.45  -44.95

DOCKED: MODEL        4
DOCKED: USER    Run = 4
DOCKED: USER    DPF = ascorbic_acid.dpf
DOCKED: USER  
DOCKED: USER    Estimated Free Energy of Binding    =   -2.79 kcal/mol  [=(1)+(2)+(3)-(4)]
DOCKED: USER    Estimated Inhibition Constant, Ki   =    9.08 mM (millimolar)  [Temperature = 298.15 K]
DOCKED: USER    
DOCKED: USER    (1) Final Intermolecular Energy     =   -4.58 kcal/mol
DOCKED: USER        vdW + Hbond + desolv Energy     =   -2.91 kcal/mol
DOCKED: USER        Electrostatic Energy            =   -1.67 kcal/mol
DOCKED: USER    (2) Final Total Internal Energy     =   -2.55 kcal/mol
DOCKED: USER    (3) Torsional Free Energy           =   +1.79 kcal/mol
DOCKED: USER    (4) Unbound System's Energy  [=(2)] =   -2.55 kcal/mol
DOCKED: USER    
DOCKED: USER    
DOCKED: USER    NEWDPF move ascorbic_acid.pdbqt
DOCKED: USER    NEWDPF about 2.770437 0.777937 -0.375688
DOCKED: USER    NEWDPF tran0 51.459218 8.288011 13.872867
DOCKED: USER    NEWDPF quaternion0 -0.521505 0.326428 -0.363008 -0.699787
DOCKED: USER    NEWDPF axisangle0 -0.730040 0.456958 -0.508164 -91.180105
DOCKED: USER    NEWDPF quat0 -0.730040 0.456958 -0.508164 -91.180105
DOCKED: USER    NEWDPF dihe0 -102.33 -99.27 -6.78 -12.89 88.45 -44.95 
DOCKED: USER  keepresnum = 1 
DOCKED: USER  
DOCKED: REMARK SMILES O=C1O[C@@H]([C@@H](O)CO)C(O)=C1O
DOCKED: REMARK SMILES IDX 5 1 4 2 9 3 11 4 2 5 3 6 1 7 10 8 12 10 6 12 7 14 8 15
DOCKED: REMARK H PARENT 10 9 12 11 6 13 8 16
DOCKED: USER                              x       y       z     vdW  Elec       q    Type
DOCKED: USER                           _______ _______ _______ _____ _____    ______ ____
DOCKED: ROOT
DOCKED: ATOM      1  C   UNL     1      51.345   8.410  12.387 -0.15 -0.06    +0.188 C 
DOCKED: ENDROOT
DOCKED: BRANCH   1   2
DOCKED: ATOM      2  C   UNL     1      52.214   8.398  13.664 -0.17 +0.02    +0.277 C 
DOCKED: ATOM      3  C   UNL     1      52.021   9.570  14.559 -0.39 +0.15    +0.186 C 
DOCKED: ATOM      4  C   UNL     1      51.573   9.202  15.757 -0.20 +0.03    +0.244 C 
DOCKED: ATOM      5  C   UNL     1      51.440   7.732  15.722 -0.05 -0.05    +0.377 C 
DOCKED: ATOM      6  O   UNL     1      51.839   7.286  14.494 -0.05 +0.04    -0.445 OA
DOCKED: ATOM      7  O   UNL     1      51.061   7.019  16.632 -0.08 +0.05    -0.242 OA
DOCKED: BRANCH   3   8
DOCKED: ATOM      8  O   UNL     1      52.338  10.833  14.141 +0.00 -1.91    -0.505 OA
DOCKED: ATOM      9  H   UNL     1      51.895  11.019  13.296 -0.24 +0.35    +0.293 HD
DOCKED: ENDBRANCH   3   8
DOCKED: BRANCH   4  10
DOCKED: ATOM     10  O   UNL     1      51.330   9.978  16.853 -0.19 +0.02    -0.499 OA
DOCKED: ATOM     11  H   UNL     1      51.964   9.745  17.550 -0.30 -0.11    +0.294 HD
DOCKED: ENDBRANCH   4  10
DOCKED: ENDBRANCH   1   2
DOCKED: BRANCH   1  12
DOCKED: ATOM     12  O   UNL     1      50.858   9.724  12.085 -0.16 +0.24    -0.386 OA
DOCKED: ATOM     13  H   UNL     1      51.625  10.312  11.954 -0.27 -0.32    +0.211 HD
DOCKED: ENDBRANCH   1  12
DOCKED: BRANCH   1  14
DOCKED: ATOM     14  C   UNL     1      52.134   7.876  11.177 -0.12 -0.10    +0.192 C 
DOCKED: BRANCH  14  15
DOCKED: ATOM     15  O   UNL     1      52.853   8.916  10.515 -0.10 +0.43    -0.394 OA
DOCKED: ATOM     16  H   UNL     1      52.263   9.687  10.431 -0.44 -0.47    +0.210 HD
DOCKED: ENDBRANCH  14  15
DOCKED: ENDBRANCH   1  14
DOCKED: TORSDOF 6
DOCKED: TER
DOCKED: ENDMDL
________________________________________________________________________________


	BEGINNING GENETIC ALGORITHM DOCKING 5 of 10
Run: 5 Seed: 226720633 886593660 [ Run 5 of 10 GA/GALS ]
Beginning LAMARCKIAN GENETIC ALGORITHM (LGA), with a maximum of 2500000 energy evaluations.

Final-Value: -6.388


	FINAL GENETIC ALGORITHM DOCKED STATE
	_______________________________________________


Detailed state:  trans 49.965 8.397 12.423 quatxyzw 0.469971 0.147794 0.492445 0.717483 center 2.770 0.778 -0.376 ntor 6 29.6968 175.4670 22.5478 47.6585 96.7672 114.2164
State:	 49.965   8.397  12.423   0.675  0.212  0.707 88.306     29.70  175.47   22.55   47.66   96.77  114.22

DOCKED: MODEL        5
DOCKED: USER    Run = 5
DOCKED: USER    DPF = ascorbic_acid.dpf
DOCKED: USER  
DOCKED: USER    Estimated Free Energy of Binding    =   -1.84 kcal/mol  [=(1)+(2)+(3)-(4)]
DOCKED: USER    Estimated Inhibition Constant, Ki   =   44.57 mM (millimolar)  [Temperature = 298.15 K]
DOCKED: USER    
DOCKED: USER    (1) Final Intermolecular Energy     =   -3.63 kcal/mol
DOCKED: USER        vdW + Hbond + desolv Energy     =   -2.93 kcal/mol
DOCKED: USER        Electrostatic Energy            =   -0.70 kcal/mol
DOCKED: USER    (2) Final Total Internal Energy     =   -2.75 kcal/mol
DOCKED: USER    (3) Torsional Free Energy           =   +1.79 kcal/mol
DOCKED: USER    (4) Unbound System's Energy  [=(2)] =   -2.75 kcal/mol
DOCKED: USER    
DOCKED: USER    
DOCKED: USER    NEWDPF move ascorbic_acid.pdbqt
DOCKED: USER    NEWDPF about 2.770437 0.777937 -0.375688
DOCKED: USER    NEWDPF tran0 49.964591 8.396939 12.422578
DOCKED: USER    NEWDPF quaternion0 0.469971 0.147794 0.492445 0.717483
DOCKED: USER    NEWDPF axisangle0 0.674688 0.212172 0.706951 88.305871
DOCKED: USER    NEWDPF quat0 0.674688 0.212172 0.706951 88.305871
DOCKED: USER    NEWDPF dihe0 29.70 175.47 22.55 47.66 96.77 114.22 
DOCKED: USER  keepresnum = 1 
DOCKED: USER  
DOCKED: REMARK SMILES O=C1O[C@@H]([C@@H](O)CO)C(O)=C1O
DOCKED: REMARK SMILES IDX 5 1 4 2 9 3 11 4 2 5 3 6 1 7 10 8 12 10 6 12 7 14 8 15
DOCKED: REMARK H PARENT 10 9 12 11 6 13 8 16
DOCKED: USER                              x       y       z     vdW  Elec       q    Type
DOCKED: USER                           _______ _______ _______ _____ _____    ______ ____
DOCKED: ROOT
DOCKED: ATOM      1  C   UNL     1      51.062   8.204  11.425 -0.11 -0.09    +0.188 C 
DOCKED: ENDROOT
DOCKED: BRANCH   1   2
DOCKED: ATOM      2  C   UNL     1      50.569   8.762  12.778 -0.12 -0.07    +0.277 C 
DOCKED: ATOM      3  C   UNL     1      50.714   7.829  13.928 -0.08 -0.02    +0.186 C 
DOCKED: ATOM      4  C   UNL     1      51.520   8.326  14.862 -0.16 +0.01    +0.244 C 
DOCKED: ATOM      5  C   UNL     1      51.966   9.646  14.373 -0.27 +0.31    +0.377 C 
DOCKED: ATOM      6  O   UNL     1      51.380   9.885  13.162 -0.17 -0.04    -0.445 OA
DOCKED: ATOM      7  O   UNL     1      52.712  10.415  14.950 -0.50 -0.66    -0.242 OA
DOCKED: BRANCH   3   8
DOCKED: ATOM      8  O   UNL     1      50.028   6.647  13.963 +0.03 +0.10    -0.505 OA
DOCKED: ATOM      9  H   UNL     1      50.180   6.205  14.816 +0.04 -0.05    +0.293 HD
DOCKED: ENDBRANCH   3   8
DOCKED: BRANCH   4  10
DOCKED: ATOM     10  O   UNL     1      51.852   7.794  16.074 -0.03 +0.08    -0.499 OA
DOCKED: ATOM     11  H   UNL     1      52.660   8.224  16.396 -0.37 -0.13    +0.294 HD
DOCKED: ENDBRANCH   4  10
DOCKED: ENDBRANCH   1   2
DOCKED: BRANCH   1  12
DOCKED: ATOM     12  O   UNL     1      50.861   9.140  10.358 -0.07 +0.38    -0.386 OA
DOCKED: ATOM     13  H   UNL     1      51.651   9.708  10.296 -0.41 -0.44    +0.211 HD
DOCKED: ENDBRANCH   1  12
DOCKED: BRANCH   1  14
DOCKED: ATOM     14  C   UNL     1      52.554   7.830  11.492 -0.15 -0.09    +0.192 C 
DOCKED: BRANCH  14  15
DOCKED: ATOM     15  O   UNL     1      53.392   8.977  11.355 -0.16 +0.29    -0.394 OA
DOCKED: ATOM     16  H   UNL     1      52.849   9.771  11.509 -0.41 -0.29    +0.210 HD
DOCKED: ENDBRANCH  14  15
DOCKED: ENDBRANCH   1  14
DOCKED: TORSDOF 6
DOCKED: TER
DOCKED: ENDMDL
________________________________________________________________________________


	BEGINNING GENETIC ALGORITHM DOCKING 6 of 10
Run: 6 Seed: 1732755847 1226331183 [ Run 6 of 10 GA/GALS ]
Beginning LAMARCKIAN GENETIC ALGORITHM (LGA), with a maximum of 2500000 energy evaluations.

Final-Value: -6.738


	FINAL GENETIC ALGORITHM DOCKED STATE
	_______________________________________________


Detailed state:  trans 51.266 8.592 13.690 quatxyzw 0.527021 -0.425805 0.443991 0.586353 center 2.770 0.778 -0.376 ntor 6 -111.3723 -125.8152 46.9615 20.7414 92.4407 -27.6550
State:	 51.266   8.592  13.690   0.651 -0.526  0.548 108.203   -111.37 -125.82   46.96   20.74   92.44  -27.66

DOCKED: MODEL        6
DOCKED: USER    Run = 6
DOCKED: USER    DPF = ascorbic_acid.dpf
DOCKED: USER  
DOCKED: USER    Estimated Free Energy of Binding    =   -2.53 kcal/mol  [=(1)+(2)+(3)-(4)]
DOCKED: USER    Estimated Inhibition Constant, Ki   =   14.05 mM (millimolar)  [Temperature = 298.15 K]
DOCKED: USER    
DOCKED: USER    (1) Final Intermolecular Energy     =   -4.32 kcal/mol
DOCKED: USER        vdW + Hbond + desolv Energy     =   -2.65 kcal/mol
DOCKED: USER        Electrostatic Energy            =   -1.67 kcal/mol
DOCKED: USER    (2) Final Total Internal Energy     =   -2.42 kcal/mol
DOCKED: USER    (3) Torsional Free Energy           =   +1.79 kcal/mol
DOCKED: USER    (4) Unbound System's Energy  [=(2)] =   -2.42 kcal/mol
DOCKED: USER    
DOCKED: USER    
DOCKED: USER    NEWDPF move ascorbic_acid.pdbqt
DOCKED: USER    NEWDPF about 2.770437 0.777937 -0.375688
DOCKED: USER    NEWDPF tran0 51.265650 8.592356 13.689924
DOCKED: USER    NEWDPF quaternion0 0.527021 -0.425805 0.443991 0.586353
DOCKED: USER    NEWDPF axisangle0 0.650599 -0.525649 0.548100 108.202681
DOCKED: USER    NEWDPF quat0 0.650599 -0.525649 0.548100 108.202681
DOCKED: USER    NEWDPF dihe0 -111.37 -125.82 46.96 20.74 92.44 -27.66 
DOCKED: USER  keepresnum = 1 
DOCKED: USER  
DOCKED: REMARK SMILES O=C1O[C@@H]([C@@H](O)CO)C(O)=C1O
DOCKED: REMARK SMILES IDX 5 1 4 2 9 3 11 4 2 5 3 6 1 7 10 8 12 10 6 12 7 14 8 15
DOCKED: REMARK H PARENT 10 9 12 11 6 13 8 16
DOCKED: USER                              x       y       z     vdW  Elec       q    Type
DOCKED: USER                           _______ _______ _______ _____ _____    ______ ____
DOCKED: ROOT
DOCKED: ATOM      1  C   UNL     1      50.975   8.615  12.223 -0.15 -0.07    +0.188 C 
DOCKED: ENDROOT
DOCKED: BRANCH   1   2
DOCKED: ATOM      2  C   UNL     1      51.981   8.454  13.383 -0.17 -0.00    +0.277 C 
DOCKED: ATOM      3  C   UNL     1      51.967   9.559  14.379 -0.39 +0.14    +0.186 C 
DOCKED: ATOM      4  C   UNL     1      51.637   9.120  15.591 -0.18 +0.04    +0.244 C 
DOCKED: ATOM      5  C   UNL     1      51.408   7.667  15.465 -0.05 -0.04    +0.377 C 
DOCKED: ATOM      6  O   UNL     1      51.635   7.300  14.168 -0.03 +0.05    -0.445 OA
DOCKED: ATOM      7  O   UNL     1      51.092   6.905  16.358 -0.07 +0.05    -0.242 OA
DOCKED: BRANCH   3   8
DOCKED: ATOM      8  O   UNL     1      52.312  10.833  14.020 +0.09 -1.85    -0.505 OA
DOCKED: ATOM      9  H   UNL     1      51.896  11.058  13.171 -0.23 +0.26    +0.293 HD
DOCKED: ENDBRANCH   3   8
DOCKED: BRANCH   4  10
DOCKED: ATOM     10  O   UNL     1      51.570   9.817  16.763 -0.15 +0.02    -0.499 OA
DOCKED: ATOM     11  H   UNL     1      51.929   9.267  17.477 -0.31 -0.13    +0.294 HD
DOCKED: ENDBRANCH   4  10
DOCKED: ENDBRANCH   1   2
DOCKED: BRANCH   1  12
DOCKED: ATOM     12  O   UNL     1      50.843   9.984  11.818 -0.09 +0.34    -0.386 OA
DOCKED: ATOM     13  H   UNL     1      51.197  10.071  10.914 -0.27 -0.38    +0.211 HD
DOCKED: ENDBRANCH   1  12
DOCKED: BRANCH   1  14
DOCKED: ATOM     14  C   UNL     1      51.393   7.769  11.007 -0.09 -0.09    +0.192 C 
DOCKED: BRANCH  14  15
DOCKED: ATOM     15  O   UNL     1      52.343   8.451  10.190 -0.09 +0.34    -0.394 OA
DOCKED: ATOM     16  H   UNL     1      52.394   9.376  10.492 -0.46 -0.35    +0.210 HD
DOCKED: ENDBRANCH  14  15
DOCKED: ENDBRANCH   1  14
DOCKED: TORSDOF 6
DOCKED: TER
DOCKED: ENDMDL
________________________________________________________________________________


	BEGINNING GENETIC ALGORITHM DOCKING 7 of 10
Run: 7 Seed: 662808629 1733306014 [ Run 7 of 10 GA/GALS ]
Beginning LAMARCKIAN GENETIC ALGORITHM (LGA), with a maximum of 2500000 energy evaluations.

Final-Value: -5.859


	FINAL GENETIC ALGORITHM DOCKED STATE
	_______________________________________________


Detailed state:  trans 52.439 6.719 12.289 quatxyzw -0.021118 0.844668 0.048821 -0.532641 center 2.770 0.778 -0.376 ntor 6 -80.8044 -163.8987 -60.4123 -91.3787 -132.7689 -146.9314
State:	 52.439   6.719  12.289  -0.025  0.998  0.058 -115.632    -80.80 -163.90  -60.41  -91.38 -132.77 -146.93

DOCKED: MODEL        7
DOCKED: USER    Run = 7
DOCKED: USER    DPF = ascorbic_acid.dpf
DOCKED: USER  
DOCKED: USER    Estimated Free Energy of Binding    =   -1.68 kcal/mol  [=(1)+(2)+(3)-(4)]
DOCKED: USER    Estimated Inhibition Constant, Ki   =   58.20 mM (millimolar)  [Temperature = 298.15 K]
DOCKED: USER    
DOCKED: USER    (1) Final Intermolecular Energy     =   -3.47 kcal/mol
DOCKED: USER        vdW + Hbond + desolv Energy     =   -2.99 kcal/mol
DOCKED: USER        Electrostatic Energy            =   -0.48 kcal/mol
DOCKED: USER    (2) Final Total Internal Energy     =   -2.38 kcal/mol
DOCKED: USER    (3) Torsional Free Energy           =   +1.79 kcal/mol
DOCKED: USER    (4) Unbound System's Energy  [=(2)] =   -2.38 kcal/mol
DOCKED: USER    
DOCKED: USER    
DOCKED: USER    NEWDPF move ascorbic_acid.pdbqt
DOCKED: USER    NEWDPF about 2.770437 0.777937 -0.375688
DOCKED: USER    NEWDPF tran0 52.438881 6.719349 12.289467
DOCKED: USER    NEWDPF quaternion0 -0.021118 0.844668 0.048821 -0.532641
DOCKED: USER    NEWDPF axisangle0 -0.024952 0.998023 0.057685 -115.631815
DOCKED: USER    NEWDPF quat0 -0.024952 0.998023 0.057685 -115.631815
DOCKED: USER    NEWDPF dihe0 -80.80 -163.90 -60.41 -91.38 -132.77 -146.93 
DOCKED: USER  keepresnum = 1 
DOCKED: USER  
DOCKED: REMARK SMILES O=C1O[C@@H]([C@@H](O)CO)C(O)=C1O
DOCKED: REMARK SMILES IDX 5 1 4 2 9 3 11 4 2 5 3 6 1 7 10 8 12 10 6 12 7 14 8 15
DOCKED: REMARK H PARENT 10 9 12 11 6 13 8 16
DOCKED: USER                              x       y       z     vdW  Elec       q    Type
DOCKED: USER                           _______ _______ _______ _____ _____    ______ ____
DOCKED: ROOT
DOCKED: ATOM      1  C   UNL     1      51.977   8.110  12.587 -0.16 -0.05    +0.188 C 
DOCKED: ENDROOT
DOCKED: BRANCH   1   2
DOCKED: ATOM      2  C   UNL     1      52.840   7.139  11.753 -0.08 -0.10    +0.277 C 
DOCKED: ATOM      3  C   UNL     1      53.810   7.797  10.836 -0.19 -0.09    +0.186 C 
DOCKED: ATOM      4  C   UNL     1      55.064   7.475  11.138 -0.14 -0.10    +0.244 C 
DOCKED: ATOM      5  C   UNL     1      54.997   6.565  12.300 -0.07 -0.12    +0.377 C 
DOCKED: ATOM      6  O   UNL     1      53.684   6.369  12.626 -0.07 +0.11    -0.445 OA
DOCKED: ATOM      7  O   UNL     1      55.940   6.048  12.868 -0.23 +0.10    -0.242 OA
DOCKED: BRANCH   3   8
DOCKED: ATOM      8  O   UNL     1      53.377   8.582   9.803 -0.09 +0.43    -0.505 OA
DOCKED: ATOM      9  H   UNL     1      53.062   9.434  10.149 -0.40 -0.49    +0.293 HD
DOCKED: ENDBRANCH   3   8
DOCKED: BRANCH   4  10
DOCKED: ATOM     10  O   UNL     1      56.216   7.833  10.499 -0.11 +0.23    -0.499 OA
DOCKED: ATOM     11  H   UNL     1      56.967   7.408  10.942 -0.48 -0.22    +0.294 HD
DOCKED: ENDBRANCH   4  10
DOCKED: ENDBRANCH   1   2
DOCKED: BRANCH   1  12
DOCKED: ATOM     12  O   UNL     1      52.668   8.566  13.758 -0.17 -0.07    -0.386 OA
DOCKED: ATOM     13  H   UNL     1      53.585   8.234  13.721 -0.32 +0.01    +0.211 HD
DOCKED: ENDBRANCH   1  12
DOCKED: BRANCH   1  14
DOCKED: ATOM     14  C   UNL     1      51.549   9.328  11.750 +0.02 -0.15    +0.192 C 
DOCKED: BRANCH  14  15
DOCKED: ATOM     15  O   UNL     1      50.972   8.938  10.505 -0.08 +0.35    -0.394 OA
DOCKED: ATOM     16  H   UNL     1      51.484   9.355   9.788 -0.41 -0.32    +0.210 HD
DOCKED: ENDBRANCH  14  15
DOCKED: ENDBRANCH   1  14
DOCKED: TORSDOF 6
DOCKED: TER
DOCKED: ENDMDL
________________________________________________________________________________


	BEGINNING GENETIC ALGORITHM DOCKING 8 of 10
Run: 8 Seed: 2068305567 445928856 [ Run 8 of 10 GA/GALS ]
Beginning LAMARCKIAN GENETIC ALGORITHM (LGA), with a maximum of 2500000 energy evaluations.

Final-Value: -6.290


	FINAL GENETIC ALGORITHM DOCKED STATE
	_______________________________________________


Detailed state:  trans 53.017 8.577 20.188 quatxyzw -0.358259 -0.566274 -0.631526 -0.390075 center 2.770 0.778 -0.376 ntor 6 27.0042 -163.4854 -8.7076 31.6586 92.5403 142.8100
State:	 53.017   8.577  20.188  -0.389 -0.615 -0.686 -134.082     27.00 -163.49   -8.71   31.66   92.54  142.81

DOCKED: MODEL        8
DOCKED: USER    Run = 8
DOCKED: USER    DPF = ascorbic_acid.dpf
DOCKED: USER  
DOCKED: USER    Estimated Free Energy of Binding    =   -1.68 kcal/mol  [=(1)+(2)+(3)-(4)]
DOCKED: USER    Estimated Inhibition Constant, Ki   =   58.90 mM (millimolar)  [Temperature = 298.15 K]
DOCKED: USER    
DOCKED: USER    (1) Final Intermolecular Energy     =   -3.47 kcal/mol
DOCKED: USER        vdW + Hbond + desolv Energy     =   -3.33 kcal/mol
DOCKED: USER        Electrostatic Energy            =   -0.14 kcal/mol
DOCKED: USER    (2) Final Total Internal Energy     =   -2.82 kcal/mol
DOCKED: USER    (3) Torsional Free Energy           =   +1.79 kcal/mol
DOCKED: USER    (4) Unbound System's Energy  [=(2)] =   -2.82 kcal/mol
DOCKED: USER    
DOCKED: USER    
DOCKED: USER    NEWDPF move ascorbic_acid.pdbqt
DOCKED: USER    NEWDPF about 2.770437 0.777937 -0.375688
DOCKED: USER    NEWDPF tran0 53.017050 8.577211 20.188029
DOCKED: USER    NEWDPF quaternion0 -0.358259 -0.566274 -0.631526 -0.390075
DOCKED: USER    NEWDPF axisangle0 -0.389081 -0.614992 -0.685857 -134.081639
DOCKED: USER    NEWDPF quat0 -0.389081 -0.614992 -0.685857 -134.081639
DOCKED: USER    NEWDPF dihe0 27.00 -163.49 -8.71 31.66 92.54 142.81 
DOCKED: USER  keepresnum = 1 
DOCKED: USER  
DOCKED: REMARK SMILES O=C1O[C@@H]([C@@H](O)CO)C(O)=C1O
DOCKED: REMARK SMILES IDX 5 1 4 2 9 3 11 4 2 5 3 6 1 7 10 8 12 10 6 12 7 14 8 15
DOCKED: REMARK H PARENT 10 9 12 11 6 13 8 16
DOCKED: USER                              x       y       z     vdW  Elec       q    Type
DOCKED: USER                           _______ _______ _______ _____ _____    ______ ____
DOCKED: ROOT
DOCKED: ATOM      1  C   UNL     1      54.328   8.109  20.734 -0.20 -0.07    +0.188 C 
DOCKED: ENDROOT
DOCKED: BRANCH   1   2
DOCKED: ATOM      2  C   UNL     1      53.199   9.161  20.689 -0.20 -0.09    +0.277 C 
DOCKED: ATOM      3  C   UNL     1      52.490   9.371  21.980 -0.11 -0.06    +0.186 C 
DOCKED: ATOM      4  C   UNL     1      52.624  10.621  22.415 -0.14 -0.07    +0.244 C 
DOCKED: ATOM      5  C   UNL     1      53.450  11.327  21.414 -0.13 -0.05    +0.377 C 
DOCKED: ATOM      6  O   UNL     1      53.755  10.456  20.406 -0.57 +0.03    -0.445 OA
DOCKED: ATOM      7  O   UNL     1      53.791  12.494  21.453 -0.86 +0.04    -0.242 OA
DOCKED: BRANCH   3   8
DOCKED: ATOM      8  O   UNL     1      51.769   8.362  22.557 +0.02 +0.15    -0.505 OA
DOCKED: ATOM      9  H   UNL     1      51.347   8.685  23.371 +0.04 -0.08    +0.293 HD
DOCKED: ENDBRANCH   3   8
DOCKED: BRANCH   4  10
DOCKED: ATOM     10  O   UNL     1      52.079  11.204  23.521 -0.00 +0.16    -0.499 OA
DOCKED: ATOM     11  H   UNL     1      52.332  12.140  23.541 +0.13 -0.10    +0.294 HD
DOCKED: ENDBRANCH   4  10
DOCKED: ENDBRANCH   1   2
DOCKED: BRANCH   1  12
DOCKED: ATOM     12  O   UNL     1      55.337   8.368  19.748 -0.18 +0.21    -0.386 OA
DOCKED: ATOM     13  H   UNL     1      55.694   9.262  19.904 -0.43 -0.17    +0.211 HD
DOCKED: ENDBRANCH   1  12
DOCKED: BRANCH   1  14
DOCKED: ATOM     14  C   UNL     1      54.985   8.062  22.125 -0.12 -0.07    +0.192 C 
DOCKED: BRANCH  14  15
DOCKED: ATOM     15  O   UNL     1      55.995   9.059  22.267 -0.11 +0.18    -0.394 OA
DOCKED: ATOM     16  H   UNL     1      56.043   9.563  21.435 -0.46 -0.15    +0.210 HD
DOCKED: ENDBRANCH  14  15
DOCKED: ENDBRANCH   1  14
DOCKED: TORSDOF 6
DOCKED: TER
DOCKED: ENDMDL
________________________________________________________________________________


	BEGINNING GENETIC ALGORITHM DOCKING 9 of 10
Run: 9 Seed: 1802805988 190736545 [ Run 9 of 10 GA/GALS ]
Beginning LAMARCKIAN GENETIC ALGORITHM (LGA), with a maximum of 2500000 energy evaluations.

Final-Value: -6.053


	FINAL GENETIC ALGORITHM DOCKED STATE
	_______________________________________________


Detailed state:  trans 49.304 9.000 12.533 quatxyzw -0.409521 0.077788 -0.614131 -0.670138 center 2.770 0.778 -0.376 ntor 6 17.1036 -149.6530 11.8109 1.6856 88.2568 144.8584
State:	 49.304   9.000  12.533  -0.552  0.105 -0.827 -95.845     17.10 -149.65   11.81    1.69   88.26  144.86

DOCKED: MODEL        9
DOCKED: USER    Run = 9
DOCKED: USER    DPF = ascorbic_acid.dpf
DOCKED: USER  
DOCKED: USER    Estimated Free Energy of Binding    =   -1.69 kcal/mol  [=(1)+(2)+(3)-(4)]
DOCKED: USER    Estimated Inhibition Constant, Ki   =   57.64 mM (millimolar)  [Temperature = 298.15 K]
DOCKED: USER    
DOCKED: USER    (1) Final Intermolecular Energy     =   -3.48 kcal/mol
DOCKED: USER        vdW + Hbond + desolv Energy     =   -2.64 kcal/mol
DOCKED: USER        Electrostatic Energy            =   -0.84 kcal/mol
DOCKED: USER    (2) Final Total Internal Energy     =   -2.57 kcal/mol
DOCKED: USER    (3) Torsional Free Energy           =   +1.79 kcal/mol
DOCKED: USER    (4) Unbound System's Energy  [=(2)] =   -2.57 kcal/mol
DOCKED: USER    
DOCKED: USER    
DOCKED: USER    NEWDPF move ascorbic_acid.pdbqt
DOCKED: USER    NEWDPF about 2.770437 0.777937 -0.375688
DOCKED: USER    NEWDPF tran0 49.304017 8.999641 12.532878
DOCKED: USER    NEWDPF quaternion0 -0.409521 0.077788 -0.614131 -0.670138
DOCKED: USER    NEWDPF axisangle0 -0.551739 0.104802 -0.827406 -95.844604
DOCKED: USER    NEWDPF quat0 -0.551739 0.104802 -0.827406 -95.844604
DOCKED: USER    NEWDPF dihe0 17.10 -149.65 11.81 1.69 88.26 144.86 
DOCKED: USER  keepresnum = 1 
DOCKED: USER  
DOCKED: REMARK SMILES O=C1O[C@@H]([C@@H](O)CO)C(O)=C1O
DOCKED: REMARK SMILES IDX 5 1 4 2 9 3 11 4 2 5 3 6 1 7 10 8 12 10 6 12 7 14 8 15
DOCKED: REMARK H PARENT 10 9 12 11 6 13 8 16
DOCKED: USER                              x       y       z     vdW  Elec       q    Type
DOCKED: USER                           _______ _______ _______ _____ _____    ______ ____
DOCKED: ROOT
DOCKED: ATOM      1  C   UNL     1      50.147   8.732  11.327 -0.13 -0.09    +0.188 C 
DOCKED: ENDROOT
DOCKED: BRANCH   1   2
DOCKED: ATOM      2  C   UNL     1      50.029   8.974  12.847 -0.10 -0.06    +0.277 C 
DOCKED: ATOM      3  C   UNL     1      50.548   7.869  13.697 -0.07 -0.03    +0.186 C 
DOCKED: ATOM      4  C   UNL     1      51.557   8.273  14.464 -0.16 +0.01    +0.244 C 
DOCKED: ATOM      5  C   UNL     1      51.770   9.702  14.158 -0.26 +0.26    +0.377 C 
DOCKED: ATOM      6  O   UNL     1      50.851  10.092  13.225 -0.17 -0.00    -0.445 OA
DOCKED: ATOM      7  O   UNL     1      52.604  10.432  14.660 -0.51 -0.73    -0.242 OA
DOCKED: BRANCH   3   8
DOCKED: ATOM      8  O   UNL     1      49.968   6.630  13.670 +0.03 +0.10    -0.505 OA
DOCKED: ATOM      9  H   UNL     1      50.503   6.006  14.189 +0.04 -0.06    +0.293 HD
DOCKED: ENDBRANCH   3   8
DOCKED: BRANCH   4  10
DOCKED: ATOM     10  O   UNL     1      52.250   7.569  15.406 -0.05 +0.04    -0.499 OA
DOCKED: ATOM     11  H   UNL     1      52.738   8.192  15.967 -0.33 -0.05    +0.294 HD
DOCKED: ENDBRANCH   4  10
DOCKED: ENDBRANCH   1   2
DOCKED: BRANCH   1  12
DOCKED: ATOM     12  O   UNL     1      50.286   9.961  10.601 -0.09 +0.41    -0.386 OA
DOCKED: ATOM     13  H   UNL     1      51.209  10.263  10.685 -0.18 -0.48    +0.211 HD
DOCKED: ENDBRANCH   1  12
DOCKED: BRANCH   1  14
DOCKED: ATOM     14  C   UNL     1      51.344   7.819  11.004 -0.09 -0.10    +0.192 C 
DOCKED: BRANCH  14  15
DOCKED: ATOM     15  O   UNL     1      52.544   8.568  10.820 -0.12 +0.32    -0.394 OA
DOCKED: ATOM     16  H   UNL     1      52.305   9.446  10.474 -0.46 -0.38    +0.210 HD
DOCKED: ENDBRANCH  14  15
DOCKED: ENDBRANCH   1  14
DOCKED: TORSDOF 6
DOCKED: TER
DOCKED: ENDMDL
________________________________________________________________________________


	BEGINNING GENETIC ALGORITHM DOCKING 10 of 10
Run: 10 Seed: 544431014 1786097786 [ Run 10 of 10 GA/GALS ]
Beginning LAMARCKIAN GENETIC ALGORITHM (LGA), with a maximum of 2500000 energy evaluations.

Final-Value: -6.666


	FINAL GENETIC ALGORITHM DOCKED STATE
	_______________________________________________


Detailed state:  trans 58.454 4.730 18.578 quatxyzw 0.507141 -0.745869 0.258013 0.346290 center 2.770 0.778 -0.376 ntor 6 -72.1434 -175.7729 21.9527 32.1677 93.8820 -106.8484
State:	 58.454   4.730  18.578   0.541 -0.795  0.275 139.479    -72.14 -175.77   21.95   32.17   93.88 -106.85

DOCKED: MODEL       10
DOCKED: USER    Run = 10
DOCKED: USER    DPF = ascorbic_acid.dpf
DOCKED: USER  
DOCKED: USER    Estimated Free Energy of Binding    =   -1.74 kcal/mol  [=(1)+(2)+(3)-(4)]
DOCKED: USER    Estimated Inhibition Constant, Ki   =   52.65 mM (millimolar)  [Temperature = 298.15 K]
DOCKED: USER    
DOCKED: USER    (1) Final Intermolecular Energy     =   -3.53 kcal/mol
DOCKED: USER        vdW + Hbond + desolv Energy     =   -3.34 kcal/mol
DOCKED: USER        Electrostatic Energy            =   -0.20 kcal/mol
DOCKED: USER    (2) Final Total Internal Energy     =   -3.13 kcal/mol
DOCKED: USER    (3) Torsional Free Energy           =   +1.79 kcal/mol
DOCKED: USER    (4) Unbound System's Energy  [=(2)] =   -3.13 kcal/mol
DOCKED: USER    
DOCKED: USER    
DOCKED: USER    NEWDPF move ascorbic_acid.pdbqt
DOCKED: USER    NEWDPF about 2.770437 0.777937 -0.375688
DOCKED: USER    NEWDPF tran0 58.453766 4.730384 18.577665
DOCKED: USER    NEWDPF quaternion0 0.507141 -0.745869 0.258013 0.346290
DOCKED: USER    NEWDPF axisangle0 0.540589 -0.795061 0.275030 139.478872
DOCKED: USER    NEWDPF quat0 0.540589 -0.795061 0.275030 139.478872
DOCKED: USER    NEWDPF dihe0 -72.14 -175.77 21.95 32.17 93.88 -106.85 
DOCKED: USER  keepresnum = 1 
DOCKED: USER  
DOCKED: REMARK SMILES O=C1O[C@@H]([C@@H](O)CO)C(O)=C1O
DOCKED: REMARK SMILES IDX 5 1 4 2 9 3 11 4 2 5 3 6 1 7 10 8 12 10 6 12 7 14 8 15
DOCKED: REMARK H PARENT 10 9 12 11 6 13 8 16
DOCKED: USER                              x       y       z     vdW  Elec       q    Type
DOCKED: USER                           _______ _______ _______ _____ _____    ______ ____
DOCKED: ROOT
DOCKED: ATOM      1  C   UNL     1      57.324   5.295  17.777 -0.20 -0.06    +0.188 C 
DOCKED: ENDROOT
DOCKED: BRANCH   1   2
DOCKED: ATOM      2  C   UNL     1      58.667   4.535  17.842 -0.11 -0.08    +0.277 C 
DOCKED: ATOM      3  C   UNL     1      59.706   5.024  16.897 -0.11 -0.07    +0.186 C 
DOCKED: ATOM      4  C   UNL     1      60.781   5.472  17.540 -0.13 -0.08    +0.244 C 
DOCKED: ATOM      5  C   UNL     1      60.508   5.303  18.981 -0.11 -0.10    +0.377 C 
DOCKED: ATOM      6  O   UNL     1      59.274   4.735  19.129 -0.04 +0.12    -0.445 OA
DOCKED: ATOM      7  O   UNL     1      61.256   5.593  19.896 -0.13 +0.07    -0.242 OA
DOCKED: BRANCH   3   8
DOCKED: ATOM      8  O   UNL     1      59.520   4.941  15.544 -0.09 +0.21    -0.505 OA
DOCKED: ATOM      9  H   UNL     1      58.993   5.698  15.238 -0.26 -0.20    +0.293 HD
DOCKED: ENDBRANCH   3   8
DOCKED: BRANCH   4  10
DOCKED: ATOM     10  O   UNL     1      61.952   5.944  17.021 -0.14 +0.20    -0.499 OA
DOCKED: ATOM     11  H   UNL     1      62.477   6.335  17.737 -0.50 -0.18    +0.294 HD
DOCKED: ENDBRANCH   4  10
DOCKED: ENDBRANCH   1   2
DOCKED: BRANCH   1  12
DOCKED: ATOM     12  O   UNL     1      57.518   6.712  17.674 -0.22 +0.12    -0.386 OA
DOCKED: ATOM     13  H   UNL     1      57.589   6.943  16.730 -0.52 -0.12    +0.211 HD
DOCKED: ENDBRANCH   1  12
DOCKED: BRANCH   1  14
DOCKED: ATOM     14  C   UNL     1      56.475   4.816  16.586 -0.15 -0.05    +0.192 C 
DOCKED: BRANCH  14  15
DOCKED: ATOM     15  O   UNL     1      56.858   5.460  15.371 -0.17 +0.13    -0.394 OA
DOCKED: ATOM     16  H   UNL     1      57.597   6.064  15.567 -0.47 -0.12    +0.210 HD
DOCKED: ENDBRANCH  14  15
DOCKED: ENDBRANCH   1  14
DOCKED: TORSDOF 6
DOCKED: TER
DOCKED: ENDMDL
________________________________________________________________________________

DPF> analysis


		CLUSTER ANALYSIS OF CONFORMATIONS
		_________________________________

Number of conformations = 10

RMSD cluster analysis will be performed using the ligand atoms only (16 / 16 total atoms).

Outputting structurally similar clusters, ranked in order of increasing energy.


________________________________________________________________________________

Number of distinct conformational clusters found = 5,  out of 10 runs,
Using an rmsd-tolerance of 2.0 A


	CLUSTERING HISTOGRAM
	____________________

________________________________________________________________________________
     |           |     |           |     |                                    
Clus | Lowest    | Run | Mean      | Num | Histogram                          
-ter | Binding   |     | Binding   | in  |                                    
Rank | Energy    |     | Energy    | Clus|    5    10   15   20   25   30   35
_____|___________|_____|___________|_____|____:____|____:____|____:____|____:___
   1 |     -2.79 |   4 |     -2.28 |   5 |#####
   2 |     -2.00 |   1 |     -2.00 |   1 |#
   3 |     -1.98 |   3 |     -1.83 |   2 |##
   4 |     -1.74 |  10 |     -1.74 |   1 |#
   5 |     -1.68 |   8 |     -1.68 |   1 |#
_____|___________|_____|___________|_____|______________________________________


Number of multi-member conformational clusters found = 2, out of 10 runs.

	RMSD TABLE
	__________

_____________________________________________________________________
     |      |      |           |         |                 |
Rank | Sub- | Run  | Binding   | Cluster | Reference       | Grep
     | Rank |      | Energy    | RMSD    | RMSD            | Pattern
_____|______|______|___________|_________|_________________|___________
   1      1      4       -2.79      0.00     50.43           RANKING
   1      2      2       -2.55      1.81     50.66           RANKING
   1      3      6       -2.53      0.49     50.23           RANKING
   1      4      5       -1.84      1.72     50.04           RANKING
   1      5      9       -1.69      1.80     49.66           RANKING
   2      1      1       -2.00      0.00     53.77           RANKING
   3      1      3       -1.98      0.00     51.18           RANKING
   3      2      7       -1.68      0.89     51.39           RANKING
   4      1     10       -1.74      0.00     57.92           RANKING
   5      1      8       -1.68      0.00     55.10           RANKING
_______________________________________________________________________



	INFORMATION ENTROPY ANALYSIS FOR THIS CLUSTERING
	________________________________________________


Information entropy for this clustering = 0.59  (rmstol = 2.00 Angstrom)

_______________________________________________________________________


	STATISTICAL MECHANICAL ANALYSIS
	_______________________________


Partition function, Q =    10.03            at Temperature, T = 298.15 K
Free energy,        A ~ -1366.29 kcal/mol   at Temperature, T = 298.15 K
Internal energy,    U =    -2.05 kcal/mol   at Temperature, T = 298.15 K
Entropy,            S =     4.58 kcal/mol/K at Temperature, T = 298.15 K

_______________________________________________________________________


	LOWEST ENERGY DOCKED CONFORMATION from EACH CLUSTER
	___________________________________________________



Keeping original residue number (specified in the input PDBQ file) for outputting.

MODEL        4
USER    Run = 4
USER    Cluster Rank = 1
USER    Number of conformations in this cluster = 5
USER  
USER    RMSD from reference structure       = 50.434 A
USER  
USER    Estimated Free Energy of Binding    =   -2.79 kcal/mol  [=(1)+(2)+(3)-(4)]
USER    Estimated Inhibition Constant, Ki   =    9.08 mM (millimolar)  [Temperature = 298.15 K]
USER    
USER    (1) Final Intermolecular Energy     =   -4.58 kcal/mol
USER        vdW + Hbond + desolv Energy     =   -2.91 kcal/mol
USER        Electrostatic Energy            =   -1.67 kcal/mol
USER    (2) Final Total Internal Energy     =   -2.55 kcal/mol
USER    (3) Torsional Free Energy           =   +1.79 kcal/mol
USER    (4) Unbound System's Energy  [=(2)] =   -2.55 kcal/mol
USER    
USER    
USER  
USER    DPF = ascorbic_acid.dpf
USER    NEWDPF move	ascorbic_acid.pdbqt
USER    NEWDPF about	2.770437 0.777937 -0.375688
USER    NEWDPF tran0	51.459218 8.288011 13.872867
USER    NEWDPF axisangle0	-0.730040 0.456958 -0.508164 -91.180105
USER    NEWDPF quaternion0	-0.521505 0.326428 -0.363008 -0.699787
USER    NEWDPF dihe0	-102.33 -99.27 -6.78 -12.89 88.45 -44.95 
USER  
USER                              x       y       z    vdW   Elec        q     RMS 
ATOM      1  C   UNL     1      51.345   8.410  12.387 -0.15 -0.06    +0.188    50.434
ATOM      2  C   UNL     1      52.214   8.398  13.664 -0.17 +0.02    +0.277    50.434
ATOM      3  C   UNL     1      52.021   9.570  14.559 -0.39 +0.15    +0.186    50.434
ATOM      4  C   UNL     1      51.573   9.202  15.757 -0.20 +0.03    +0.244    50.434
ATOM      5  C   UNL     1      51.440   7.732  15.722 -0.05 -0.05    +0.377    50.434
ATOM      6  O   UNL     1      51.839   7.286  14.494 -0.05 +0.04    -0.445    50.434
ATOM      7  O   UNL     1      51.061   7.019  16.632 -0.08 +0.05    -0.242    50.434
ATOM      8  O   UNL     1      52.338  10.833  14.141 +0.00 -1.91    -0.505    50.434
ATOM      9  H   UNL     1      51.895  11.019  13.296 -0.24 +0.35    +0.293    50.434
ATOM     10  O   UNL     1      51.330   9.978  16.853 -0.19 +0.02    -0.499    50.434
ATOM     11  H   UNL     1      51.964   9.745  17.550 -0.30 -0.11    +0.294    50.434
ATOM     12  O   UNL     1      50.858   9.724  12.085 -0.16 +0.24    -0.386    50.434
ATOM     13  H   UNL     1      51.625  10.312  11.954 -0.27 -0.32    +0.211    50.434
ATOM     14  C   UNL     1      52.134   7.876  11.177 -0.12 -0.10    +0.192    50.434
ATOM     15  O   UNL     1      52.853   8.916  10.515 -0.10 +0.43    -0.394    50.434
ATOM     16  H   UNL     1      52.263   9.687  10.431 -0.44 -0.47    +0.210    50.434
TER
ENDMDL
MODEL        1
USER    Run = 1
USER    Cluster Rank = 2
USER    Number of conformations in this cluster = 1
USER  
USER    RMSD from reference structure       = 53.766 A
USER  
USER    Estimated Free Energy of Binding    =   -2.00 kcal/mol  [=(1)+(2)+(3)-(4)]
USER    Estimated Inhibition Constant, Ki   =   34.40 mM (millimolar)  [Temperature = 298.15 K]
USER    
USER    (1) Final Intermolecular Energy     =   -3.79 kcal/mol
USER        vdW + Hbond + desolv Energy     =   -3.62 kcal/mol
USER        Electrostatic Energy            =   -0.16 kcal/mol
USER    (2) Final Total Internal Energy     =   -2.84 kcal/mol
USER    (3) Torsional Free Energy           =   +1.79 kcal/mol
USER    (4) Unbound System's Energy  [=(2)] =   -2.84 kcal/mol
USER    
USER    
USER  
USER    DPF = ascorbic_acid.dpf
USER    NEWDPF move	ascorbic_acid.pdbqt
USER    NEWDPF about	2.770437 0.777937 -0.375688
USER    NEWDPF tran0	51.354043 9.770069 20.750466
USER    NEWDPF axisangle0	-0.538759 0.334086 -0.773386 -144.949724
USER    NEWDPF quaternion0	-0.513752 0.318580 -0.737489 -0.301124
USER    NEWDPF dihe0	-49.57 -167.72 -52.35 0.46 92.19 -148.76 
USER  
USER                              x       y       z    vdW   Elec        q     RMS 
ATOM      1  C   UNL     1      51.160   8.982  19.495 -0.18 -0.06    +0.188    53.766
ATOM      2  C   UNL     1      51.904   9.208  20.828 -0.13 -0.09    +0.277    53.766
ATOM      3  C   UNL     1      53.082   8.325  21.042 -0.14 -0.06    +0.186    53.766
ATOM      4  C   UNL     1      54.207   9.027  21.153 -0.22 -0.09    +0.244    53.766
ATOM      5  C   UNL     1      53.830  10.448  21.015 -0.19 -0.07    +0.377    53.766
ATOM      6  O   UNL     1      52.476  10.527  20.846 -0.36 +0.09    -0.445    53.766
ATOM      7  O   UNL     1      54.581  11.403  21.065 -0.80 +0.03    -0.242    53.766
ATOM      8  O   UNL     1      52.933   6.969  21.149 +0.01 +0.15    -0.505    53.766
ATOM      9  H   UNL     1      53.241   6.540  20.333 +0.06 -0.09    +0.293    53.766
ATOM     10  O   UNL     1      55.471   8.581  21.407 -0.06 +0.25    -0.499    53.766
ATOM     11  H   UNL     1      56.078   9.337  21.402 -0.40 -0.22    +0.294    53.766
ATOM     12  O   UNL     1      51.765   9.709  18.417 -0.12 +0.15    -0.386    53.766
ATOM     13  H   UNL     1      52.646  10.009  18.707 -0.45 -0.10    +0.211    53.766
ATOM     14  C   UNL     1      51.117   7.487  19.131 -0.07 -0.06    +0.192    53.766
ATOM     15  O   UNL     1      52.304   7.074  18.456 -0.06 +0.15    -0.394    53.766
ATOM     16  H   UNL     1      52.644   7.832  17.947 -0.51 -0.14    +0.210    53.766
TER
ENDMDL
MODEL        3
USER    Run = 3
USER    Cluster Rank = 3
USER    Number of conformations in this cluster = 2
USER  
USER    RMSD from reference structure       = 51.181 A
USER  
USER    Estimated Free Energy of Binding    =   -1.98 kcal/mol  [=(1)+(2)+(3)-(4)]
USER    Estimated Inhibition Constant, Ki   =   35.30 mM (millimolar)  [Temperature = 298.15 K]
USER    
USER    (1) Final Intermolecular Energy     =   -3.77 kcal/mol
USER        vdW + Hbond + desolv Energy     =   -3.12 kcal/mol
USER        Electrostatic Energy            =   -0.65 kcal/mol
USER    (2) Final Total Internal Energy     =   -3.13 kcal/mol
USER    (3) Torsional Free Energy           =   +1.79 kcal/mol
USER    (4) Unbound System's Energy  [=(2)] =   -3.13 kcal/mol
USER    
USER    
USER  
USER    DPF = ascorbic_acid.dpf
USER    NEWDPF move	ascorbic_acid.pdbqt
USER    NEWDPF about	2.770437 0.777937 -0.375688
USER    NEWDPF tran0	52.964648 7.129649 12.475278
USER    NEWDPF axisangle0	-0.353683 0.934970 -0.027198 -158.587324
USER    NEWDPF quaternion0	-0.347526 0.918694 -0.026724 -0.185775
USER    NEWDPF dihe0	-102.51 -171.22 19.17 24.14 100.14 -88.70 
USER  
USER                              x       y       z    vdW   Elec        q     RMS 
ATOM      1  C   UNL     1      51.948   8.219  12.602 -0.17 -0.05    +0.188    51.181
ATOM      2  C   UNL     1      52.754   7.239  11.721 -0.08 -0.10    +0.277    51.181
ATOM      3  C   UNL     1      53.737   7.884  10.810 -0.19 -0.10    +0.186    51.181
ATOM      4  C   UNL     1      54.981   7.497  11.079 -0.15 -0.10    +0.244    51.181
ATOM      5  C   UNL     1      54.891   6.553  12.211 -0.08 -0.12    +0.377    51.181
ATOM      6  O   UNL     1      53.577   6.405  12.554 -0.06 +0.11    -0.445    51.181
ATOM      7  O   UNL     1      55.819   5.977  12.746 -0.22 +0.09    -0.242    51.181
ATOM      8  O   UNL     1      53.323   8.721   9.810 -0.08 +0.47    -0.505    51.181
ATOM      9  H   UNL     1      52.748   9.412  10.179 -0.43 -0.52    +0.293    51.181
ATOM     10  O   UNL     1      56.136   7.825  10.431 -0.12 +0.23    -0.499    51.181
ATOM     11  H   UNL     1      56.887   7.448  10.916 -0.48 -0.21    +0.294    51.181
ATOM     12  O   UNL     1      52.646   9.456  12.798 -0.05 -0.04    -0.386    51.181
ATOM     13  H   UNL     1      52.444  10.044  12.047 -0.42 -0.25    +0.211    51.181
ATOM     14  C   UNL     1      50.569   8.512  11.983 -0.13 -0.08    +0.192    51.181
ATOM     15  O   UNL     1      50.664   9.421  10.887 -0.10 +0.37    -0.394    51.181
ATOM     16  H   UNL     1      51.581   9.748  10.842 -0.36 -0.37    +0.210    51.181
TER
ENDMDL
MODEL       10
USER    Run = 10
USER    Cluster Rank = 4
USER    Number of conformations in this cluster = 1
USER  
USER    RMSD from reference structure       = 57.919 A
USER  
USER    Estimated Free Energy of Binding    =   -1.74 kcal/mol  [=(1)+(2)+(3)-(4)]
USER    Estimated Inhibition Constant, Ki   =   52.65 mM (millimolar)  [Temperature = 298.15 K]
USER    
USER    (1) Final Intermolecular Energy     =   -3.53 kcal/mol
USER        vdW + Hbond + desolv Energy     =   -3.34 kcal/mol
USER        Electrostatic Energy            =   -0.20 kcal/mol
USER    (2) Final Total Internal Energy     =   -3.13 kcal/mol
USER    (3) Torsional Free Energy           =   +1.79 kcal/mol
USER    (4) Unbound System's Energy  [=(2)] =   -3.13 kcal/mol
USER    
USER    
USER  
USER    DPF = ascorbic_acid.dpf
USER    NEWDPF move	ascorbic_acid.pdbqt
USER    NEWDPF about	2.770437 0.777937 -0.375688
USER    NEWDPF tran0	58.453766 4.730384 18.577665
USER    NEWDPF axisangle0	0.540589 -0.795061 0.275030 139.478872
USER    NEWDPF quaternion0	0.507141 -0.745869 0.258013 0.346290
USER    NEWDPF dihe0	-72.14 -175.77 21.95 32.17 93.88 -106.85 
USER  
USER                              x       y       z    vdW   Elec        q     RMS 
ATOM      1  C   UNL     1      57.324   5.295  17.777 -0.20 -0.06    +0.188    57.919
ATOM      2  C   UNL     1      58.667   4.535  17.842 -0.11 -0.08    +0.277    57.919
ATOM      3  C   UNL     1      59.706   5.024  16.897 -0.11 -0.07    +0.186    57.919
ATOM      4  C   UNL     1      60.781   5.472  17.540 -0.13 -0.08    +0.244    57.919
ATOM      5  C   UNL     1      60.508   5.303  18.981 -0.11 -0.10    +0.377    57.919
ATOM      6  O   UNL     1      59.274   4.735  19.129 -0.04 +0.12    -0.445    57.919
ATOM      7  O   UNL     1      61.256   5.593  19.896 -0.13 +0.07    -0.242    57.919
ATOM      8  O   UNL     1      59.520   4.941  15.544 -0.09 +0.21    -0.505    57.919
ATOM      9  H   UNL     1      58.993   5.698  15.238 -0.26 -0.20    +0.293    57.919
ATOM     10  O   UNL     1      61.952   5.944  17.021 -0.14 +0.20    -0.499    57.919
ATOM     11  H   UNL     1      62.477   6.335  17.737 -0.50 -0.18    +0.294    57.919
ATOM     12  O   UNL     1      57.518   6.712  17.674 -0.22 +0.12    -0.386    57.919
ATOM     13  H   UNL     1      57.589   6.943  16.730 -0.52 -0.12    +0.211    57.919
ATOM     14  C   UNL     1      56.475   4.816  16.586 -0.15 -0.05    +0.192    57.919
ATOM     15  O   UNL     1      56.858   5.460  15.371 -0.17 +0.13    -0.394    57.919
ATOM     16  H   UNL     1      57.597   6.064  15.567 -0.47 -0.12    +0.210    57.919
TER
ENDMDL
MODEL        8
USER    Run = 8
USER    Cluster Rank = 5
USER    Number of conformations in this cluster = 1
USER  
USER    RMSD from reference structure       = 55.095 A
USER  
USER    Estimated Free Energy of Binding    =   -1.68 kcal/mol  [=(1)+(2)+(3)-(4)]
USER    Estimated Inhibition Constant, Ki   =   58.90 mM (millimolar)  [Temperature = 298.15 K]
USER    
USER    (1) Final Intermolecular Energy     =   -3.47 kcal/mol
USER        vdW + Hbond + desolv Energy     =   -3.33 kcal/mol
USER        Electrostatic Energy            =   -0.14 kcal/mol
USER    (2) Final Total Internal Energy     =   -2.82 kcal/mol
USER    (3) Torsional Free Energy           =   +1.79 kcal/mol
USER    (4) Unbound System's Energy  [=(2)] =   -2.82 kcal/mol
USER    
USER    
USER  
USER    DPF = ascorbic_acid.dpf
USER    NEWDPF move	ascorbic_acid.pdbqt
USER    NEWDPF about	2.770437 0.777937 -0.375688
USER    NEWDPF tran0	53.017050 8.577211 20.188029
USER    NEWDPF axisangle0	-0.389081 -0.614992 -0.685857 -134.081639
USER    NEWDPF quaternion0	-0.358259 -0.566274 -0.631526 -0.390075
USER    NEWDPF dihe0	27.00 -163.49 -8.71 31.66 92.54 142.81 
USER  
USER                              x       y       z    vdW   Elec        q     RMS 
ATOM      1  C   UNL     1      54.328   8.109  20.734 -0.20 -0.07    +0.188    55.095
ATOM      2  C   UNL     1      53.199   9.161  20.689 -0.20 -0.09    +0.277    55.095
ATOM      3  C   UNL     1      52.490   9.371  21.980 -0.11 -0.06    +0.186    55.095
ATOM      4  C   UNL     1      52.624  10.621  22.415 -0.14 -0.07    +0.244    55.095
ATOM      5  C   UNL     1      53.450  11.327  21.414 -0.13 -0.05    +0.377    55.095
ATOM      6  O   UNL     1      53.755  10.456  20.406 -0.57 +0.03    -0.445    55.095
ATOM      7  O   UNL     1      53.791  12.494  21.453 -0.86 +0.04    -0.242    55.095
ATOM      8  O   UNL     1      51.769   8.362  22.557 +0.02 +0.15    -0.505    55.095
ATOM      9  H   UNL     1      51.347   8.685  23.371 +0.04 -0.08    +0.293    55.095
ATOM     10  O   UNL     1      52.079  11.204  23.521 -0.00 +0.16    -0.499    55.095
ATOM     11  H   UNL     1      52.332  12.140  23.541 +0.13 -0.10    +0.294    55.095
ATOM     12  O   UNL     1      55.337   8.368  19.748 -0.18 +0.21    -0.386    55.095
ATOM     13  H   UNL     1      55.694   9.262  19.904 -0.43 -0.17    +0.211    55.095
ATOM     14  C   UNL     1      54.985   8.062  22.125 -0.12 -0.07    +0.192    55.095
ATOM     15  O   UNL     1      55.995   9.059  22.267 -0.11 +0.18    -0.394    55.095
ATOM     16  H   UNL     1      56.043   9.563  21.435 -0.46 -0.15    +0.210    55.095
TER
ENDMDL


AVSFLD: # AVS field file
AVSFLD: #
AVSFLD: # Created by AutoDock
AVSFLD: #
AVSFLD: ndim=2           # number of dimensions in the field
AVSFLD: nspace=1         # number of physical coordinates
AVSFLD: veclen=7         # vector size
AVSFLD: dim1=16          # atoms
AVSFLD: dim2=5           # conformations
AVSFLD: data=Real       # data type (byte,integer,Real,double)
AVSFLD: field=uniform    # field coordinate layout
AVSFLD: label= x y z vdW Elec q RMS
AVSFLD: variable 1 file = ascorbic_acid.dlg.pdb filetype = ascii offset = 5 stride = 12
AVSFLD: variable 2 file = ascorbic_acid.dlg.pdb filetype = ascii offset = 6 stride = 12
AVSFLD: variable 3 file = ascorbic_acid.dlg.pdb filetype = ascii offset = 7 stride = 12
AVSFLD: variable 4 file = ascorbic_acid.dlg.pdb filetype = ascii offset = 8 stride = 12
AVSFLD: variable 5 file = ascorbic_acid.dlg.pdb filetype = ascii offset = 9 stride = 12
AVSFLD: variable 6 file = ascorbic_acid.dlg.pdb filetype = ascii offset = 10 stride = 12
AVSFLD: variable 7 file = ascorbic_acid.dlg.pdb filetype = ascii offset = 11 stride = 12
AVSFLD: # end of file

>>> Closing the docking parameter file (DPF)...
This docking finished at:			4:22 59" p.m., 09/11/2026


________________________________________________________________________________

autodock4: Successful Completion on "VP"

Real= 1m 16.88s,  CPU= 1m 16.82s,  System= 0.05s
________________________________________________________________________________

