REMARK SMILES CC(=O)Oc1ccccc1C(=O)O
REMARK SMILES IDX 5 1 6 2 7 3 8 4 9 5 10 6 4 7 2 8 3 9 1 10 11 11 12 12 13 13
REMARK H PARENT 13 14
ROOT
ATOM      1  C   UNL     1       4.630   0.825   0.726  1.00  0.00    +0.145 A 
ATOM      2  C   UNL     1       5.397   0.521  -0.403  1.00  0.00    +0.048 A 
ATOM      3  C   UNL     1       6.788   0.457  -0.304  1.00  0.00    +0.004 A 
ATOM      4  C   UNL     1       7.417   0.726   0.909  1.00  0.00    +0.001 A 
ATOM      5  C   UNL     1       6.658   1.069   2.027  1.00  0.00    +0.019 A 
ATOM      6  C   UNL     1       5.258   1.134   1.944  1.00  0.00    +0.102 A 
ENDROOT
BRANCH   1   7
ATOM      7  O   UNL     1       3.217   0.884   0.655  1.00  0.00    -0.426 OA
BRANCH   7   8
ATOM      8  C   UNL     1       2.494  -0.022  -0.132  1.00  0.00    +0.308 C 
ATOM      9  O   UNL     1       2.953  -0.922  -0.820  1.00  0.00    -0.252 OA
ATOM     10  C   UNL     1       1.026   0.247   0.027  1.00  0.00    +0.139 C 
ENDBRANCH   7   8
ENDBRANCH   1   7
BRANCH   6  11
ATOM     11  C   UNL     1       4.533   1.516   3.184  1.00  0.00    +0.339 C 
ATOM     12  O   UNL     1       4.975   1.298   4.300  1.00  0.00    -0.246 OA
BRANCH  11  13
ATOM     13  O   UNL     1       3.386   2.196   2.977  1.00  0.00    -0.478 OA
ATOM     14  H   UNL     1       3.180   2.346   2.035  1.00  0.00    +0.297 HD
ENDBRANCH  11  13
ENDBRANCH   6  11
TORSDOF 4
