REMARK SMILES Cn1c(=O)c2c(ncn2C)n(C)c1=O
REMARK SMILES IDX 10 1 9 2 8 3 7 4 6 5 5 6 3 7 4 8 2 9 1 10 13 11 14 12 11 13
REMARK SMILES IDX 12 14
REMARK H PARENT
ROOT
ATOM      1  C   UNL     1       1.115   0.088   0.004  1.00  0.00    +0.151 C 
ATOM      2  N   UNL     1       2.556   0.051   0.005  1.00  0.00    -0.328 N 
ATOM      3  C   UNL     1       3.394   1.134   0.003  1.00  0.00    +0.202 A 
ATOM      4  N   UNL     1       4.661   0.769   0.003  1.00  0.00    -0.218 NA
ATOM      5  C   UNL     1       4.621  -0.593   0.006  1.00  0.00    +0.167 A 
ATOM      6  C   UNL     1       3.344  -1.065   0.007  1.00  0.00    +0.152 A 
ATOM      7  C   UNL     1       3.025  -2.449   0.010  1.00  0.00    +0.282 A 
ATOM      8  O   UNL     1       1.869  -2.864   0.010  1.00  0.00    -0.267 OA
ATOM      9  N   UNL     1       4.159  -3.266   0.013  1.00  0.00    -0.261 N 
ATOM     10  C   UNL     1       3.966  -4.703   0.019  1.00  0.00    +0.159 C 
ATOM     11  C   UNL     1       5.496  -2.816   0.011  1.00  0.00    +0.332 A 
ATOM     12  O   UNL     1       6.435  -3.619   0.013  1.00  0.00    -0.247 OA
ATOM     13  N   UNL     1       5.705  -1.437   0.007  1.00  0.00    -0.279 N 
ATOM     14  C   UNL     1       7.051  -0.893   0.005  1.00  0.00    +0.157 C 
ENDROOT
TORSDOF 0
