          AutoDock 4.2 Release 4.2.6   
         (C) 1989-2012 The Scripps Research Institute
        AutoDock comes with ABSOLUTELY NO WARRANTY.
        AutoDock is free software, and you are welcome
        to redistribute it under certain conditions;
        for details type 'autodock4 -C'

                     main.cc  $Revision: 1.213 $

                   Compiled on Dec 11 2024 at 15:52:35


This file was created at:			4:16 17" p.m., 09/11/2026
                   on host:		"VP"
Current Working Directory = "/home/vishishtaapandit28/docking-pipeline-project/results/3BH4/ad4_grids"

      ________________________________________________________________

                   SETTING UP DEFAULT PARAMETER LIBRARY
      ________________________________________________________________


Random number generator was seeded with values 63333, 1789123577.
Docking parameter file (DPF) used for this docking:		EDTA.dpf
DPF> autodock_parameter_version 4.2

	Autodock parameter version 4.2.
DPF> outlev 1

Output Level = 1  ADT-COMPATIBLE OUTPUT DURING DOCKING.
DPF> intelec

Electrostatic energies will be calculated for all non-bonds between moving atoms.
DPF> seed pid time

Random number generator was seeded with values 63333, 1789123577.
DPF> ligand_types C HD NA OA

DPF> fld receptor.maps.fld

Opening Grid Map Dimensions file:		receptor.maps.fld
Grid Point Spacing =				0.375 Angstroms

Even Number of User-specified Grid Points =	54 x-points
						54 y-points
						54 z-points

Coordinates of Central Grid Point of Maps =	(53.838, 11.958, 13.914)
Macromolecule file used to create Grid Maps =	receptor.pdbqt
Grid Parameter file used to create Grid Maps =	receptor.gpf
Minimum coordinates in grid = (43.713, 1.833, 3.789)
Maximum coordinates in grid = (63.963, 22.083, 24.039)

DPF> map receptor.C.map

DPF> map receptor.HD.map

DPF> map receptor.NA.map

DPF> map receptor.OA.map

DPF> elecmap receptor.e.map

DPF> desolvmap receptor.d.map

DPF> move EDTA.pdbqt

1,4-interactions will be _ignored_ in the non-bonded internal energy calculation.

Ligand PDBQT file = "EDTA.pdbqt"

INPUT LIGAND PDBQT FILE:
________________________

INPUT-LIGAND-PDBQT: REMARK SMILES O=C(O)CN(CCN(CC(=O)O)CC(=O)O)CC(=O)O
INPUT-LIGAND-PDBQT: REMARK SMILES IDX 6 1 5 2 4 3 2 4 1 5 3 6 17 8 18 9 19 10 20 11 7 13 8 14 9 15
INPUT-LIGAND-PDBQT: REMARK SMILES IDX 10 16 11 17 12 18 13 20 14 21 15 22 16 23
INPUT-LIGAND-PDBQT: REMARK H PARENT 3 7 20 12 12 19 16 24
INPUT-LIGAND-PDBQT: ROOT
INPUT-LIGAND-PDBQT: ATOM      1  C   UNL     1       5.273   0.031  -2.165  1.00  0.00    +0.101 C 
INPUT-LIGAND-PDBQT: ENDROOT
INPUT-LIGAND-PDBQT: BRANCH   1   2
INPUT-LIGAND-PDBQT: ATOM      2  N   UNL     1       4.500  -0.101  -0.896  1.00  0.00    -0.281 NA
INPUT-LIGAND-PDBQT: BRANCH   2   3
INPUT-LIGAND-PDBQT: ATOM      3  C   UNL     1       3.053  -0.108  -1.265  1.00  0.00    +0.208 C 
INPUT-LIGAND-PDBQT: BRANCH   3   4
INPUT-LIGAND-PDBQT: ATOM      4  C   UNL     1       2.162  -0.215  -0.038  1.00  0.00    +0.317 C 
INPUT-LIGAND-PDBQT: ATOM      5  O   UNL     1       1.210  -0.980   0.044  1.00  0.00    -0.251 OA
INPUT-LIGAND-PDBQT: BRANCH   4   6
INPUT-LIGAND-PDBQT: ATOM      6  O   UNL     1       2.589   0.548   0.992  1.00  0.00    -0.480 OA
INPUT-LIGAND-PDBQT: ATOM      7  H   UNL     1       3.433   0.990   0.746  1.00  0.00    +0.296 HD
INPUT-LIGAND-PDBQT: ENDBRANCH   4   6
INPUT-LIGAND-PDBQT: ENDBRANCH   3   4
INPUT-LIGAND-PDBQT: ENDBRANCH   2   3
INPUT-LIGAND-PDBQT: BRANCH   2   8
INPUT-LIGAND-PDBQT: ATOM      8  C   UNL     1       4.903  -1.295  -0.101  1.00  0.00    +0.208 C 
INPUT-LIGAND-PDBQT: BRANCH   8   9
INPUT-LIGAND-PDBQT: ATOM      9  C   UNL     1       4.751  -2.626  -0.827  1.00  0.00    +0.317 C 
INPUT-LIGAND-PDBQT: ATOM     10  O   UNL     1       5.634  -3.118  -1.518  1.00  0.00    -0.251 OA
INPUT-LIGAND-PDBQT: BRANCH   9  11
INPUT-LIGAND-PDBQT: ATOM     11  O   UNL     1       3.538  -3.206  -0.689  1.00  0.00    -0.480 OA
INPUT-LIGAND-PDBQT: ATOM     12  H   UNL     1       2.886  -2.743  -0.122  1.00  0.00    +0.296 HD
INPUT-LIGAND-PDBQT: ENDBRANCH   9  11
INPUT-LIGAND-PDBQT: ENDBRANCH   8   9
INPUT-LIGAND-PDBQT: ENDBRANCH   2   8
INPUT-LIGAND-PDBQT: ENDBRANCH   1   2
INPUT-LIGAND-PDBQT: BRANCH   1  13
INPUT-LIGAND-PDBQT: ATOM     13  C   UNL     1       6.823   0.102  -2.074  1.00  0.00    +0.101 C 
INPUT-LIGAND-PDBQT: BRANCH  13  14
INPUT-LIGAND-PDBQT: ATOM     14  N   UNL     1       7.513   0.202  -3.391  1.00  0.00    -0.281 NA
INPUT-LIGAND-PDBQT: BRANCH  14  15
INPUT-LIGAND-PDBQT: ATOM     15  C   UNL     1       7.077   1.370  -4.207  1.00  0.00    +0.208 C 
INPUT-LIGAND-PDBQT: BRANCH  15  16
INPUT-LIGAND-PDBQT: ATOM     16  C   UNL     1       7.388   2.735  -3.591  1.00  0.00    +0.317 C 
INPUT-LIGAND-PDBQT: ATOM     17  O   UNL     1       6.878   3.146  -2.558  1.00  0.00    -0.251 OA
INPUT-LIGAND-PDBQT: BRANCH  16  18
INPUT-LIGAND-PDBQT: ATOM     18  O   UNL     1       8.294   3.460  -4.281  1.00  0.00    -0.480 OA
INPUT-LIGAND-PDBQT: ATOM     19  H   UNL     1       8.723   3.007  -5.038  1.00  0.00    +0.296 HD
INPUT-LIGAND-PDBQT: ENDBRANCH  16  18
INPUT-LIGAND-PDBQT: ENDBRANCH  15  16
INPUT-LIGAND-PDBQT: ENDBRANCH  14  15
INPUT-LIGAND-PDBQT: BRANCH  14  20
INPUT-LIGAND-PDBQT: ATOM     20  C   UNL     1       8.982   0.196  -3.177  1.00  0.00    +0.208 C 
INPUT-LIGAND-PDBQT: BRANCH  20  21
INPUT-LIGAND-PDBQT: ATOM     21  C   UNL     1       9.715   0.217  -4.513  1.00  0.00    +0.317 C 
INPUT-LIGAND-PDBQT: ATOM     22  O   UNL     1      10.395   1.155  -4.903  1.00  0.00    -0.251 OA
INPUT-LIGAND-PDBQT: BRANCH  21  23
INPUT-LIGAND-PDBQT: ATOM     23  O   UNL     1       9.419  -0.848  -5.295  1.00  0.00    -0.480 OA
INPUT-LIGAND-PDBQT: ATOM     24  H   UNL     1       8.736  -1.412  -4.871  1.00  0.00    +0.296 HD
INPUT-LIGAND-PDBQT: ENDBRANCH  21  23
INPUT-LIGAND-PDBQT: ENDBRANCH  20  21
INPUT-LIGAND-PDBQT: ENDBRANCH  14  20
INPUT-LIGAND-PDBQT: ENDBRANCH  13  14
INPUT-LIGAND-PDBQT: ENDBRANCH   1  13
INPUT-LIGAND-PDBQT: TORSDOF 15
________________________________________________________________________________

Total charge on ligand                               =	-0.000 e
REMARK SMILES O=C(O)CN(CCN(CC(=O)O)CC(=O)O)CC(=O)O
REMARK SMILES IDX 6 1 5 2 4 3 2 4 1 5 3 6 17 8 18 9 19 10 20 11 7 13 8 14 9 15
REMARK SMILES IDX 10 16 11 17 12 18 13 20 14 21 15 22 16 23
REMARK H PARENT 3 7 20 12 12 19 16 24


Number of Rotatable Bonds in Small Molecule =	15 torsions
Number of atoms in ligand:  24

Number of non-hydrogen atoms in ligand:  20

Number of vibrational degrees of freedom of ligand:  66


Number of torsional degrees of freedom = 15
Estimated loss of torsional free energy upon binding = +4.4745 kcal/mol


DPF> about 5.994791666666667 0.02112499999999995 -2.2390833333333333

Small molecule center of rotation =	(+5.995, +0.021, -2.239)

DPF> tran0 random

Initial translation =			(56.465, 14.218, 22.102) Angstroms
DPF> quat0 random

Each run will begin with a new, random initial orientation.
Initial quaternion,  (x,y,z,w) =	( -0.365, 0.194, 0.783, -0.465 ),
DPF> dihe0 random

DPF> tstep 2.0

Initial simanneal cycle, maximum translation step = +/- 2.0 Angstroms
DPF> qstep 50.0

Initial simanneal cycle, maximum quaternion angle step = +/- 50.0 deg
DPF> dstep 50.0

Initial simanneal cycle, maximum torsion angle step = +/- 50.0 deg
DPF> torsdof 15

Number of torsional degrees of freedom = 15
Free energy coefficient for torsional degrees of freedom = 0.2983, the factory default value.

Estimated loss of torsional free energy upon binding = +4.4745 kcal/mol

DPF> rmstol 2.0

Maximum RMS tolerance for conformational cluster analysis = 2.00 Angstroms
DPF> extnrg 1000.0

External grid energy (beyond grid map walls) = 1000.00

DPF> e0max 0.0 10000

Using user-specified maximum number of retries for simanneal initialization, 10000 retries.
If the simanneal initial energy is greater than e0max, 0.000,
then a new, random initial state will be created.

DPF> ga_pop_size 150

A population of 150 individuals will be used
DPF> ga_num_evals 2500000

There will be at most 2500000 function evaluations used.
DPF> ga_num_generations 27000

The GA will run for at most 27000 generations.
DPF> ga_elitism 1

The 1 best will be preserved each GA generation.
DPF> ga_mutation_rate 0.02

The mutation rate is 0.020000.
DPF> ga_crossover_rate 0.8

The crossover rate is 0.800000.
DPF> ga_window_size 10

The GA's selection window is 10 generations.
DPF> ga_cauchy_alpha 0.0

The alpha parameter (for the Cauchy distribution) is being set to 0.000000.
DPF> ga_cauchy_beta 1.0

The beta parameter (for the Cauchy distribution) is being set to 1.000000.
DPF> set_ga

DPF> sw_max_its 300

Solis & Wets algorithms will perform at most 300 iterations.
DPF> sw_max_succ 4

Solis & Wets algorithms expand rho every 4 in a row successes.
DPF> sw_max_fail 4

Solis & Wets algorithms contract rho every 4 in a row failures.
DPF> sw_rho 1.0

rho is set to 1.000000.
DPF> sw_lb_rho 0.01

rho will never get smaller than 0.010000.
DPF> ls_search_freq 0.06

Local search will be performed with frequency 0.060000.
DPF> set_psw1

Creating a new Local Search object using the pseudo-Solis-Wets algorithm (pSW1) with the current settings.

DPF> unbound_model bound

DPF> ga_run 10

centering ligand on specified point: 5.995 0.021 -2.239
Furthest true ligand atom from "about" center is 5.395 Angstroms (maxrad).
Number of requested GA dockings = 10 runs
Unbound model to be used is 'same as bound' [AutoDock 4.2 default].

	BEGINNING GENETIC ALGORITHM DOCKING 1 of 10
Run: 1 Seed: 1760533088 1295588892 [ Run 1 of 10 GA/GALS ]
Beginning LAMARCKIAN GENETIC ALGORITHM (LGA), with a maximum of 2500000 energy evaluations.

Final-Value: -10.658


	FINAL GENETIC ALGORITHM DOCKED STATE
	_______________________________________________


Detailed state:  trans 51.287 6.593 11.613 quatxyzw -0.117870 0.435110 0.725262 0.520367 center 5.995 0.021 -2.239 ntor 15 20.6024 -24.9415 49.7155 -4.9148 -19.5483 140.5077 -114.5371 40.2370 59.1647 163.1687 178.3765 -12.6163 -55.8928 56.7995 157.1489
State:	 51.287   6.593  11.613  -0.138  0.510  0.849 117.286     20.60  -24.94   49.72   -4.91  -19.55  140.51 -114.54   40.24   59.16  163.17  178.38  -12.62  -55.89   56.80  157.15

DOCKED: MODEL        1
DOCKED: USER    Run = 1
DOCKED: USER    DPF = EDTA.dpf
DOCKED: USER  
DOCKED: USER    Estimated Free Energy of Binding    =   +2.81 kcal/mol  [=(1)+(2)+(3)-(4)]
DOCKED: USER    
DOCKED: USER    (1) Final Intermolecular Energy     =   -1.67 kcal/mol
DOCKED: USER        vdW + Hbond + desolv Energy     =   -0.97 kcal/mol
DOCKED: USER        Electrostatic Energy            =   -0.70 kcal/mol
DOCKED: USER    (2) Final Total Internal Energy     =   -8.99 kcal/mol
DOCKED: USER    (3) Torsional Free Energy           =   +4.47 kcal/mol
DOCKED: USER    (4) Unbound System's Energy  [=(2)] =   -8.99 kcal/mol
DOCKED: USER    
DOCKED: USER    
DOCKED: USER    NEWDPF move EDTA.pdbqt
DOCKED: USER    NEWDPF about 5.994792 0.021125 -2.239083
DOCKED: USER    NEWDPF tran0 51.286540 6.593016 11.613075
DOCKED: USER    NEWDPF quaternion0 -0.117870 0.435110 0.725262 0.520367
DOCKED: USER    NEWDPF axisangle0 -0.138030 0.509530 0.849310 117.286257
DOCKED: USER    NEWDPF quat0 -0.138030 0.509530 0.849310 117.286257
DOCKED: USER    NEWDPF dihe0 20.60 -24.94 49.72 -4.91 -19.55 140.51 -114.54 40.24 59.16 163.17 178.38 -12.62 -55.89 56.80 157.15 
DOCKED: USER  keepresnum = 1 
DOCKED: USER  
DOCKED: REMARK SMILES O=C(O)CN(CCN(CC(=O)O)CC(=O)O)CC(=O)O
DOCKED: REMARK SMILES IDX 6 1 5 2 4 3 2 4 1 5 3 6 17 8 18 9 19 10 20 11 7 13 8 14 9 15
DOCKED: REMARK SMILES IDX 10 16 11 17 12 18 13 20 14 21 15 22 16 23
DOCKED: REMARK H PARENT 3 7 20 12 12 19 16 24
DOCKED: USER                              x       y       z     vdW  Elec       q    Type
DOCKED: USER                           _______ _______ _______ _____ _____    ______ ____
DOCKED: ROOT
DOCKED: ATOM      1  C   UNL     1      51.558   7.249  11.461 -0.08 -0.04    +0.101 C 
DOCKED: ENDROOT
DOCKED: BRANCH   1   2
DOCKED: ATOM      2  N   UNL     1      51.013   8.567  11.897 -0.09 +0.13    -0.281 NA
DOCKED: BRANCH   2   3
DOCKED: ATOM      3  C   UNL     1      52.136   9.313  12.538 -0.02 -0.06    +0.208 C 
DOCKED: BRANCH   3   4
DOCKED: ATOM      4  C   UNL     1      51.828   9.653  13.988 -0.28 +0.21    +0.317 C 
DOCKED: ATOM      5  O   UNL     1      52.315  10.609  14.578 -0.52 -0.71    -0.251 OA
DOCKED: BRANCH   4   6
DOCKED: ATOM      6  O   UNL     1      50.885   8.852  14.528 -0.06 -0.03    -0.480 OA
DOCKED: ATOM      7  H   UNL     1      50.788   8.041  13.979 +0.11 -0.03    +0.296 HD
DOCKED: ENDBRANCH   4   6
DOCKED: ENDBRANCH   3   4
DOCKED: ENDBRANCH   2   3
DOCKED: BRANCH   2   8
DOCKED: ATOM      8  C   UNL     1      50.376   9.322  10.781 -0.13 -0.17    +0.208 C 
DOCKED: BRANCH   8   9
DOCKED: ATOM      9  C   UNL     1      48.853   9.328  10.802 -0.11 -0.13    +0.317 C 
DOCKED: ATOM     10  O   UNL     1      48.167   9.053   9.825 -0.06 +0.09    -0.251 OA
DOCKED: BRANCH   9  11
DOCKED: ATOM     11  O   UNL     1      48.309   9.710  11.978 -0.00 +0.10    -0.480 OA
DOCKED: ATOM     12  H   UNL     1      48.844   9.559  12.786 +0.12 -0.05    +0.296 HD
DOCKED: ENDBRANCH   9  11
DOCKED: ENDBRANCH   8   9
DOCKED: ENDBRANCH   2   8
DOCKED: ENDBRANCH   1   2
DOCKED: BRANCH   1  13
DOCKED: ATOM     13  C   UNL     1      50.880   5.960  12.005 -0.01 -0.03    +0.101 C 
DOCKED: BRANCH  13  14
DOCKED: ATOM     14  N   UNL     1      50.158   6.143  13.296 +0.01 +0.06    -0.281 NA
DOCKED: BRANCH  14  15
DOCKED: ATOM     15  C   UNL     1      48.682   5.969  13.186 -0.00 -0.04    +0.208 C 
DOCKED: BRANCH  15  16
DOCKED: ATOM     16  C   UNL     1      47.861   7.210  13.539 +0.00 -0.05    +0.317 C 
DOCKED: ATOM     17  O   UNL     1      46.639   7.250  13.499 -0.01 +0.04    -0.251 OA
DOCKED: BRANCH  16  18
DOCKED: ATOM     18  O   UNL     1      48.601   8.274  13.916 -0.00 +0.06    -0.480 OA
DOCKED: ATOM     19  H   UNL     1      49.401   8.456  13.378 +0.10 -0.05    +0.296 HD
DOCKED: ENDBRANCH  16  18
DOCKED: ENDBRANCH  15  16
DOCKED: ENDBRANCH  14  15
DOCKED: BRANCH  14  20
DOCKED: ATOM     20  C   UNL     1      50.745   5.241  14.319 -0.00 -0.04    +0.208 C 
DOCKED: BRANCH  20  21
DOCKED: ATOM     21  C   UNL     1      50.313   5.667  15.717 +0.00 -0.06    +0.317 C 
DOCKED: ATOM     22  O   UNL     1      50.235   4.905  16.669 -0.01 +0.05    -0.251 OA
DOCKED: BRANCH  21  23
DOCKED: ATOM     23  O   UNL     1      49.878   6.949  15.767 +0.02 +0.08    -0.480 OA
DOCKED: ATOM     24  H   UNL     1      49.945   7.374  14.885 +0.07 -0.04    +0.296 HD
DOCKED: ENDBRANCH  21  23
DOCKED: ENDBRANCH  20  21
DOCKED: ENDBRANCH  14  20
DOCKED: ENDBRANCH  13  14
DOCKED: ENDBRANCH   1  13
DOCKED: TORSDOF 15
DOCKED: TER
DOCKED: ENDMDL
________________________________________________________________________________


	BEGINNING GENETIC ALGORITHM DOCKING 2 of 10
Run: 2 Seed: 1352320876 1313369356 [ Run 2 of 10 GA/GALS ]
Beginning LAMARCKIAN GENETIC ALGORITHM (LGA), with a maximum of 2500000 energy evaluations.

Final-Value: -8.472


	FINAL GENETIC ALGORITHM DOCKED STATE
	_______________________________________________


Detailed state:  trans 54.218 5.698 9.054 quatxyzw -0.122758 0.607738 0.659464 -0.425079 center 5.995 0.021 -2.239 ntor 15 103.9967 -26.7783 -7.4283 -48.4068 130.5503 178.5672 -107.3651 68.4906 -108.2976 135.5205 -180.0000 -32.7351 -167.1067 124.8281 79.2255
State:	 54.218   5.698   9.054  -0.136  0.671  0.729 -129.689    104.00  -26.78   -7.43  -48.41  130.55  178.57 -107.37   68.49 -108.30  135.52 -180.00  -32.74 -167.11  124.83   79.23

DOCKED: MODEL        2
DOCKED: USER    Run = 2
DOCKED: USER    DPF = EDTA.dpf
DOCKED: USER  
DOCKED: USER    Estimated Free Energy of Binding    =   +2.28 kcal/mol  [=(1)+(2)+(3)-(4)]
DOCKED: USER    
DOCKED: USER    (1) Final Intermolecular Energy     =   -2.19 kcal/mol
DOCKED: USER        vdW + Hbond + desolv Energy     =   -2.07 kcal/mol
DOCKED: USER        Electrostatic Energy            =   -0.12 kcal/mol
DOCKED: USER    (2) Final Total Internal Energy     =   -6.28 kcal/mol
DOCKED: USER    (3) Torsional Free Energy           =   +4.47 kcal/mol
DOCKED: USER    (4) Unbound System's Energy  [=(2)] =   -6.28 kcal/mol
DOCKED: USER    
DOCKED: USER    
DOCKED: USER    NEWDPF move EDTA.pdbqt
DOCKED: USER    NEWDPF about 5.994792 0.021125 -2.239083
DOCKED: USER    NEWDPF tran0 54.218401 5.697600 9.053534
DOCKED: USER    NEWDPF quaternion0 -0.122758 0.607738 0.659464 -0.425079
DOCKED: USER    NEWDPF axisangle0 -0.135621 0.671418 0.728564 -129.688724
DOCKED: USER    NEWDPF quat0 -0.135621 0.671418 0.728564 -129.688724
DOCKED: USER    NEWDPF dihe0 104.00 -26.78 -7.43 -48.41 130.55 178.57 -107.37 68.49 -108.30 135.52 -180.00 -32.74 -167.11 124.83 79.23 
DOCKED: USER  keepresnum = 1 
DOCKED: USER  
DOCKED: REMARK SMILES O=C(O)CN(CCN(CC(=O)O)CC(=O)O)CC(=O)O
DOCKED: REMARK SMILES IDX 6 1 5 2 4 3 2 4 1 5 3 6 17 8 18 9 19 10 20 11 7 13 8 14 9 15
DOCKED: REMARK SMILES IDX 10 16 11 17 12 18 13 20 14 21 15 22 16 23
DOCKED: REMARK H PARENT 3 7 20 12 12 19 16 24
DOCKED: USER                              x       y       z     vdW  Elec       q    Type
DOCKED: USER                           _______ _______ _______ _____ _____    ______ ____
DOCKED: ROOT
DOCKED: ATOM      1  C   UNL     1      54.677   5.469   9.567 -0.05 -0.04    +0.101 C 
DOCKED: ENDROOT
DOCKED: BRANCH   1   2
DOCKED: ATOM      2  N   UNL     1      55.691   6.287  10.293 -0.07 +0.12    -0.281 NA
DOCKED: BRANCH   2   3
DOCKED: ATOM      3  C   UNL     1      55.332   7.720  10.077 -0.21 -0.09    +0.208 C 
DOCKED: BRANCH   3   4
DOCKED: ATOM      4  C   UNL     1      54.096   8.114  10.870 -0.16 -0.16    +0.317 C 
DOCKED: ATOM      5  O   UNL     1      53.447   7.329  11.548 -0.14 +0.09    -0.251 OA
DOCKED: BRANCH   4   6
DOCKED: ATOM      6  O   UNL     1      53.846   9.441  10.832 -0.11 +0.49    -0.480 OA
DOCKED: ATOM      7  H   UNL     1      53.128   9.622  10.183 -0.38 -0.57    +0.296 HD
DOCKED: ENDBRANCH   4   6
DOCKED: ENDBRANCH   3   4
DOCKED: ENDBRANCH   2   3
DOCKED: BRANCH   2   8
DOCKED: ATOM      8  C   UNL     1      55.795   5.925  11.735 -0.14 -0.09    +0.208 C 
DOCKED: BRANCH   8   9
DOCKED: ATOM      9  C   UNL     1      56.566   4.641  12.016 -0.08 -0.13    +0.317 C 
DOCKED: ATOM     10  O   UNL     1      56.031   3.544  12.111 -0.03 +0.08    -0.251 OA
DOCKED: BRANCH   9  11
DOCKED: ATOM     11  O   UNL     1      57.894   4.814  12.205 -0.05 +0.24    -0.480 OA
DOCKED: ATOM     12  H   UNL     1      58.312   5.574  11.749 -0.51 -0.25    +0.296 HD
DOCKED: ENDBRANCH   9  11
DOCKED: ENDBRANCH   8   9
DOCKED: ENDBRANCH   2   8
DOCKED: ENDBRANCH   1   2
DOCKED: BRANCH   1  13
DOCKED: ATOM     13  C   UNL     1      53.716   6.196   8.586 -0.07 -0.04    +0.101 C 
DOCKED: BRANCH  13  14
DOCKED: ATOM     14  N   UNL     1      52.346   6.429   9.125 -0.01 +0.11    -0.281 NA
DOCKED: BRANCH  14  15
DOCKED: ATOM     15  C   UNL     1      51.426   7.087   8.156 -0.06 -0.09    +0.208 C 
DOCKED: BRANCH  15  16
DOCKED: ATOM     16  C   UNL     1      50.932   8.472   8.578 -0.08 -0.22    +0.317 C 
DOCKED: ATOM     17  O   UNL     1      50.081   9.104   7.969 -0.10 +0.15    -0.251 OA
DOCKED: BRANCH  16  18
DOCKED: ATOM     18  O   UNL     1      51.509   8.946   9.703 -0.01 +0.54    -0.480 OA
DOCKED: ATOM     19  H   UNL     1      52.012   8.295  10.237 +0.07 -0.23    +0.296 HD
DOCKED: ENDBRANCH  16  18
DOCKED: ENDBRANCH  15  16
DOCKED: ENDBRANCH  14  15
DOCKED: BRANCH  14  20
DOCKED: ATOM     20  C   UNL     1      51.792   5.147   9.629 -0.01 -0.06    +0.208 C 
DOCKED: BRANCH  20  21
DOCKED: ATOM     21  C   UNL     1      50.944   5.385  10.872 +0.01 -0.09    +0.317 C 
DOCKED: ATOM     22  O   UNL     1      50.395   4.494  11.504 -0.00 +0.06    -0.251 OA
DOCKED: BRANCH  21  23
DOCKED: ATOM     23  O   UNL     1      50.734   6.699  11.125 +0.02 +0.16    -0.480 OA
DOCKED: ATOM     24  H   UNL     1      51.567   7.209  11.028 +0.08 -0.12    +0.296 HD
DOCKED: ENDBRANCH  21  23
DOCKED: ENDBRANCH  20  21
DOCKED: ENDBRANCH  14  20
DOCKED: ENDBRANCH  13  14
DOCKED: ENDBRANCH   1  13
DOCKED: TORSDOF 15
DOCKED: TER
DOCKED: ENDMDL
________________________________________________________________________________


	BEGINNING GENETIC ALGORITHM DOCKING 3 of 10
Run: 3 Seed: 1942083400 1777488907 [ Run 3 of 10 GA/GALS ]
Beginning LAMARCKIAN GENETIC ALGORITHM (LGA), with a maximum of 2500000 energy evaluations.

Final-Value: -8.819


	FINAL GENETIC ALGORITHM DOCKED STATE
	_______________________________________________


Detailed state:  trans 51.303 6.565 9.530 quatxyzw 0.425600 -0.133233 0.864150 -0.233149 center 5.995 0.021 -2.239 ntor 15 92.6605 101.8261 43.9520 34.2162 -108.1684 124.5895 -81.0524 54.5691 -118.6195 3.3455 176.0751 -67.3535 -0.1854 20.7759 -60.4066
State:	 51.303   6.565   9.530   0.438 -0.137  0.889 -153.035     92.66  101.83   43.95   34.22 -108.17  124.59  -81.05   54.57 -118.62    3.35  176.08  -67.35   -0.19   20.78  -60.41

DOCKED: MODEL        3
DOCKED: USER    Run = 3
DOCKED: USER    DPF = EDTA.dpf
DOCKED: USER  
DOCKED: USER    Estimated Free Energy of Binding    =   +1.85 kcal/mol  [=(1)+(2)+(3)-(4)]
DOCKED: USER    
DOCKED: USER    (1) Final Intermolecular Energy     =   -2.63 kcal/mol
DOCKED: USER        vdW + Hbond + desolv Energy     =   -2.34 kcal/mol
DOCKED: USER        Electrostatic Energy            =   -0.28 kcal/mol
DOCKED: USER    (2) Final Total Internal Energy     =   -6.19 kcal/mol
DOCKED: USER    (3) Torsional Free Energy           =   +4.47 kcal/mol
DOCKED: USER    (4) Unbound System's Energy  [=(2)] =   -6.19 kcal/mol
DOCKED: USER    
DOCKED: USER    
DOCKED: USER    NEWDPF move EDTA.pdbqt
DOCKED: USER    NEWDPF about 5.994792 0.021125 -2.239083
DOCKED: USER    NEWDPF tran0 51.302761 6.564589 9.530285
DOCKED: USER    NEWDPF quaternion0 0.425600 -0.133233 0.864150 -0.233149
DOCKED: USER    NEWDPF axisangle0 0.437662 -0.137009 0.888640 -153.034893
DOCKED: USER    NEWDPF quat0 0.437662 -0.137009 0.888640 -153.034893
DOCKED: USER    NEWDPF dihe0 92.66 101.83 43.95 34.22 -108.17 124.59 -81.05 54.57 -118.62 3.35 176.08 -67.35 -0.19 20.78 -60.41 
DOCKED: USER  keepresnum = 1 
DOCKED: USER  
DOCKED: REMARK SMILES O=C(O)CN(CCN(CC(=O)O)CC(=O)O)CC(=O)O
DOCKED: REMARK SMILES IDX 6 1 5 2 4 3 2 4 1 5 3 6 17 8 18 9 19 10 20 11 7 13 8 14 9 15
DOCKED: REMARK SMILES IDX 10 16 11 17 12 18 13 20 14 21 15 22 16 23
DOCKED: REMARK H PARENT 3 7 20 12 12 19 16 24
DOCKED: USER                              x       y       z     vdW  Elec       q    Type
DOCKED: USER                           _______ _______ _______ _____ _____    ______ ____
DOCKED: ROOT
DOCKED: ATOM      1  C   UNL     1      51.729   6.315   8.999 -0.04 -0.04    +0.101 C 
DOCKED: ENDROOT
DOCKED: BRANCH   1   2
DOCKED: ATOM      2  N   UNL     1      53.061   5.660   9.151 -0.01 +0.10    -0.281 NA
DOCKED: BRANCH   2   3
DOCKED: ATOM      3  C   UNL     1      53.580   5.402   7.774 -0.03 -0.07    +0.208 C 
DOCKED: BRANCH   3   4
DOCKED: ATOM      4  C   UNL     1      53.785   6.694   7.000 -0.06 -0.12    +0.317 C 
DOCKED: ATOM      5  O   UNL     1      54.873   7.070   6.585 -0.09 +0.09    -0.251 OA
DOCKED: BRANCH   4   6
DOCKED: ATOM      6  O   UNL     1      52.627   7.335   6.729 -0.05 +0.19    -0.480 OA
DOCKED: ATOM      7  H   UNL     1      52.415   7.955   7.463 +0.06 -0.15    +0.296 HD
DOCKED: ENDBRANCH   4   6
DOCKED: ENDBRANCH   3   4
DOCKED: ENDBRANCH   2   3
DOCKED: BRANCH   2   8
DOCKED: ATOM      8  C   UNL     1      54.001   6.460   9.985 -0.06 -0.08    +0.208 C 
DOCKED: BRANCH   8   9
DOCKED: ATOM      9  C   UNL     1      54.218   7.891   9.509 -0.13 -0.17    +0.317 C 
DOCKED: ATOM     10  O   UNL     1      55.283   8.484   9.627 -0.25 +0.12    -0.251 OA
DOCKED: BRANCH   9  11
DOCKED: ATOM     11  O   UNL     1      53.120   8.481   8.985 -0.07 +0.38    -0.480 OA
DOCKED: ATOM     12  H   UNL     1      52.624   9.093   9.568 -0.30 -0.41    +0.296 HD
DOCKED: ENDBRANCH   9  11
DOCKED: ENDBRANCH   8   9
DOCKED: ENDBRANCH   2   8
DOCKED: ENDBRANCH   1   2
DOCKED: BRANCH   1  13
DOCKED: ATOM     13  C   UNL     1      50.934   6.664  10.288 -0.03 -0.04    +0.101 C 
DOCKED: BRANCH  13  14
DOCKED: ATOM     14  N   UNL     1      50.668   8.119  10.472 -0.05 +0.16    -0.281 NA
DOCKED: BRANCH  14  15
DOCKED: ATOM     15  C   UNL     1      49.555   8.635   9.627 -0.08 -0.11    +0.208 C 
DOCKED: BRANCH  15  16
DOCKED: ATOM     16  C   UNL     1      49.949   9.752   8.659 -0.09 -0.25    +0.317 C 
DOCKED: ATOM     17  O   UNL     1      49.202  10.665   8.336 -0.18 +0.15    -0.251 OA
DOCKED: BRANCH  16  18
DOCKED: ATOM     18  O   UNL     1      51.211   9.658   8.189 -0.03 +0.54    -0.480 OA
DOCKED: ATOM     19  H   UNL     1      51.534   8.751   8.000 +0.06 -0.22    +0.296 HD
DOCKED: ENDBRANCH  16  18
DOCKED: ENDBRANCH  15  16
DOCKED: ENDBRANCH  14  15
DOCKED: BRANCH  14  20
DOCKED: ATOM     20  C   UNL     1      50.443   8.398  11.913 -0.11 -0.08    +0.208 C 
DOCKED: BRANCH  20  21
DOCKED: ATOM     21  C   UNL     1      51.616   9.178  12.495 -0.10 -0.11    +0.317 C 
DOCKED: ATOM     22  O   UNL     1      51.597   9.720  13.590 -0.35 -0.10    -0.251 OA
DOCKED: BRANCH  21  23
DOCKED: ATOM     23  O   UNL     1      52.633   9.337  11.615 -0.00 +0.44    -0.480 OA
DOCKED: ATOM     24  H   UNL     1      52.288   9.491  10.709 -0.35 -0.51    +0.296 HD
DOCKED: ENDBRANCH  21  23
DOCKED: ENDBRANCH  20  21
DOCKED: ENDBRANCH  14  20
DOCKED: ENDBRANCH  13  14
DOCKED: ENDBRANCH   1  13
DOCKED: TORSDOF 15
DOCKED: TER
DOCKED: ENDMDL
________________________________________________________________________________


	BEGINNING GENETIC ALGORITHM DOCKING 4 of 10
Run: 4 Seed: 1780425198 720092306 [ Run 4 of 10 GA/GALS ]
Beginning LAMARCKIAN GENETIC ALGORITHM (LGA), with a maximum of 2500000 energy evaluations.

Final-Value: -9.691


	FINAL GENETIC ALGORITHM DOCKED STATE
	_______________________________________________


Detailed state:  trans 52.453 9.591 20.556 quatxyzw 0.439228 -0.766584 -0.195295 0.425779 center 5.995 0.021 -2.239 ntor 15 -40.0541 51.5347 -65.2629 -144.7187 21.9273 -173.7501 -0.2187 153.0072 -164.2860 9.8799 -25.5229 83.7466 -46.2433 -149.0659 -23.3288
State:	 52.453   9.591  20.556   0.485 -0.847 -0.216 129.600    -40.05   51.53  -65.26 -144.72   21.93 -173.75   -0.22  153.01 -164.29    9.88  -25.52   83.75  -46.24 -149.07  -23.33

DOCKED: MODEL        4
DOCKED: USER    Run = 4
DOCKED: USER    DPF = EDTA.dpf
DOCKED: USER  
DOCKED: USER    Estimated Free Energy of Binding    =   +1.53 kcal/mol  [=(1)+(2)+(3)-(4)]
DOCKED: USER    
DOCKED: USER    (1) Final Intermolecular Energy     =   -2.94 kcal/mol
DOCKED: USER        vdW + Hbond + desolv Energy     =   -2.89 kcal/mol
DOCKED: USER        Electrostatic Energy            =   -0.05 kcal/mol
DOCKED: USER    (2) Final Total Internal Energy     =   -6.75 kcal/mol
DOCKED: USER    (3) Torsional Free Energy           =   +4.47 kcal/mol
DOCKED: USER    (4) Unbound System's Energy  [=(2)] =   -6.75 kcal/mol
DOCKED: USER    
DOCKED: USER    
DOCKED: USER    NEWDPF move EDTA.pdbqt
DOCKED: USER    NEWDPF about 5.994792 0.021125 -2.239083
DOCKED: USER    NEWDPF tran0 52.453141 9.590570 20.555770
DOCKED: USER    NEWDPF quaternion0 0.439228 -0.766584 -0.195295 0.425779
DOCKED: USER    NEWDPF axisangle0 0.485428 -0.847216 -0.215837 129.600062
DOCKED: USER    NEWDPF quat0 0.485428 -0.847216 -0.215837 129.600062
DOCKED: USER    NEWDPF dihe0 -40.05 51.53 -65.26 -144.72 21.93 -173.75 -0.22 153.01 -164.29 9.88 -25.52 83.75 -46.24 -149.07 -23.33 
DOCKED: USER  keepresnum = 1 
DOCKED: USER  
DOCKED: REMARK SMILES O=C(O)CN(CCN(CC(=O)O)CC(=O)O)CC(=O)O
DOCKED: REMARK SMILES IDX 6 1 5 2 4 3 2 4 1 5 3 6 17 8 18 9 19 10 20 11 7 13 8 14 9 15
DOCKED: REMARK SMILES IDX 10 16 11 17 12 18 13 20 14 21 15 22 16 23
DOCKED: REMARK H PARENT 3 7 20 12 12 19 16 24
DOCKED: USER                              x       y       z     vdW  Elec       q    Type
DOCKED: USER                           _______ _______ _______ _____ _____    ______ ____
DOCKED: ROOT
DOCKED: ATOM      1  C   UNL     1      52.662  10.012  21.108 -0.27 -0.03    +0.101 C 
DOCKED: ENDROOT
DOCKED: BRANCH   1   2
DOCKED: ATOM      2  N   UNL     1      53.578  11.187  21.043 -0.83 +0.01    -0.281 NA
DOCKED: BRANCH   2   3
DOCKED: ATOM      3  C   UNL     1      52.981  12.254  21.902 -0.35 -0.05    +0.208 C 
DOCKED: BRANCH   3   4
DOCKED: ATOM      4  C   UNL     1      51.929  11.692  22.844 -0.14 -0.10    +0.317 C 
DOCKED: ATOM      5  O   UNL     1      50.734  11.942  22.752 -0.19 +0.08    -0.251 OA
DOCKED: BRANCH   4   6
DOCKED: ATOM      6  O   UNL     1      52.434  10.807  23.731 +0.01 +0.15    -0.480 OA
DOCKED: ATOM      7  H   UNL     1      53.062  10.204  23.273 +0.09 -0.09    +0.296 HD
DOCKED: ENDBRANCH   4   6
DOCKED: ENDBRANCH   3   4
DOCKED: ENDBRANCH   2   3
DOCKED: BRANCH   2   8
DOCKED: ATOM      8  C   UNL     1      54.977  10.846  21.428 -0.19 -0.06    +0.208 C 
DOCKED: BRANCH   8   9
DOCKED: ATOM      9  C   UNL     1      55.107  10.057  22.725 -0.15 -0.11    +0.317 C 
DOCKED: ATOM     10  O   UNL     1      55.141  10.583  23.830 -0.10 +0.08    -0.251 OA
DOCKED: BRANCH   9  11
DOCKED: ATOM     11  O   UNL     1      55.234   8.721  22.559 -0.05 +0.18    -0.480 OA
DOCKED: ATOM     12  H   UNL     1      55.908   8.415  21.917 +0.00 -0.14    +0.296 HD
DOCKED: ENDBRANCH   9  11
DOCKED: ENDBRANCH   8   9
DOCKED: ENDBRANCH   2   8
DOCKED: ENDBRANCH   1   2
DOCKED: BRANCH   1  13
DOCKED: ATOM     13  C   UNL     1      52.256   9.325  19.774 -0.24 -0.04    +0.101 C 
DOCKED: BRANCH  13  14
DOCKED: ATOM     14  N   UNL     1      51.855   7.897  19.914 -0.06 +0.09    -0.281 NA
DOCKED: BRANCH  14  15
DOCKED: ATOM     15  C   UNL     1      52.981   6.939  19.726 -0.09 -0.07    +0.208 C 
DOCKED: BRANCH  15  16
DOCKED: ATOM     16  C   UNL     1      54.318   7.397  20.311 -0.12 -0.12    +0.317 C 
DOCKED: ATOM     17  O   UNL     1      54.947   8.360  19.894 -0.28 +0.12    -0.251 OA
DOCKED: BRANCH  16  18
DOCKED: ATOM     18  O   UNL     1      54.753   6.651  21.349 -0.01 +0.16    -0.480 OA
DOCKED: ATOM     19  H   UNL     1      54.260   6.754  22.191 +0.04 -0.09    +0.296 HD
DOCKED: ENDBRANCH  16  18
DOCKED: ENDBRANCH  15  16
DOCKED: ENDBRANCH  14  15
DOCKED: BRANCH  14  20
DOCKED: ATOM     20  C   UNL     1      51.178   7.703  21.221 -0.03 -0.06    +0.208 C 
DOCKED: BRANCH  20  21
DOCKED: ATOM     21  C   UNL     1      52.147   7.116  22.241 -0.00 -0.09    +0.317 C 
DOCKED: ATOM     22  O   UNL     1      52.259   5.919  22.464 -0.00 +0.07    -0.251 OA
DOCKED: BRANCH  21  23
DOCKED: ATOM     23  O   UNL     1      52.768   8.061  22.985 +0.02 +0.14    -0.480 OA
DOCKED: ATOM     24  H   UNL     1      53.707   7.819  23.141 +0.04 -0.09    +0.296 HD
DOCKED: ENDBRANCH  21  23
DOCKED: ENDBRANCH  20  21
DOCKED: ENDBRANCH  14  20
DOCKED: ENDBRANCH  13  14
DOCKED: ENDBRANCH   1  13
DOCKED: TORSDOF 15
DOCKED: TER
DOCKED: ENDMDL
________________________________________________________________________________


	BEGINNING GENETIC ALGORITHM DOCKING 5 of 10
Run: 5 Seed: 469269528 1304656520 [ Run 5 of 10 GA/GALS ]
Beginning LAMARCKIAN GENETIC ALGORITHM (LGA), with a maximum of 2500000 energy evaluations.

Final-Value: -8.834


	FINAL GENETIC ALGORITHM DOCKED STATE
	_______________________________________________


Detailed state:  trans 49.164 8.486 11.426 quatxyzw -0.888440 0.432133 -0.152875 0.023787 center 5.995 0.021 -2.239 ntor 15 -37.6191 -58.3330 -127.3748 -48.2868 17.8223 49.5846 22.0957 62.5716 -23.7265 -158.1978 -27.5912 -7.0995 -59.7248 -169.0867 -69.5031
State:	 49.164   8.486  11.426  -0.889  0.432 -0.153 177.274    -37.62  -58.33 -127.37  -48.29   17.82   49.58   22.10   62.57  -23.73 -158.20  -27.59   -7.10  -59.72 -169.09  -69.50

DOCKED: MODEL        5
DOCKED: USER    Run = 5
DOCKED: USER    DPF = EDTA.dpf
DOCKED: USER  
DOCKED: USER    Estimated Free Energy of Binding    =   -0.11 kcal/mol  [=(1)+(2)+(3)-(4)]
DOCKED: USER    Estimated Inhibition Constant, Ki   =  831.56 mM (millimolar)  [Temperature = 298.15 K]
DOCKED: USER    
DOCKED: USER    (1) Final Intermolecular Energy     =   -4.58 kcal/mol
DOCKED: USER        vdW + Hbond + desolv Energy     =   -3.55 kcal/mol
DOCKED: USER        Electrostatic Energy            =   -1.04 kcal/mol
DOCKED: USER    (2) Final Total Internal Energy     =   -4.25 kcal/mol
DOCKED: USER    (3) Torsional Free Energy           =   +4.47 kcal/mol
DOCKED: USER    (4) Unbound System's Energy  [=(2)] =   -4.25 kcal/mol
DOCKED: USER    
DOCKED: USER    
DOCKED: USER    NEWDPF move EDTA.pdbqt
DOCKED: USER    NEWDPF about 5.994792 0.021125 -2.239083
DOCKED: USER    NEWDPF tran0 49.163512 8.486207 11.426375
DOCKED: USER    NEWDPF quaternion0 -0.888440 0.432133 -0.152875 0.023787
DOCKED: USER    NEWDPF axisangle0 -0.888691 0.432255 -0.152918 177.273953
DOCKED: USER    NEWDPF quat0 -0.888691 0.432255 -0.152918 177.273953
DOCKED: USER    NEWDPF dihe0 -37.62 -58.33 -127.37 -48.29 17.82 49.58 22.10 62.57 -23.73 -158.20 -27.59 -7.10 -59.72 -169.09 -69.50 
DOCKED: USER  keepresnum = 1 
DOCKED: USER  
DOCKED: REMARK SMILES O=C(O)CN(CCN(CC(=O)O)CC(=O)O)CC(=O)O
DOCKED: REMARK SMILES IDX 6 1 5 2 4 3 2 4 1 5 3 6 17 8 18 9 19 10 20 11 7 13 8 14 9 15
DOCKED: REMARK SMILES IDX 10 16 11 17 12 18 13 20 14 21 15 22 16 23
DOCKED: REMARK H PARENT 3 7 20 12 12 19 16 24
DOCKED: USER                              x       y       z     vdW  Elec       q    Type
DOCKED: USER                           _______ _______ _______ _____ _____    ______ ____
DOCKED: ROOT
DOCKED: ATOM      1  C   UNL     1      48.756   9.016  11.144 -0.14 -0.04    +0.101 C 
DOCKED: ENDROOT
DOCKED: BRANCH   1   2
DOCKED: ATOM      2  N   UNL     1      48.729   9.465   9.722 -0.08 +0.13    -0.281 NA
DOCKED: BRANCH   2   3
DOCKED: ATOM      3  C   UNL     1      47.314   9.358   9.257 -0.08 -0.06    +0.208 C 
DOCKED: BRANCH   3   4
DOCKED: ATOM      4  C   UNL     1      47.042  10.270   8.071 -0.06 -0.08    +0.317 C 
DOCKED: ATOM      5  O   UNL     1      46.259  11.210   8.104 -0.64 +0.02    -0.251 OA
DOCKED: BRANCH   4   6
DOCKED: ATOM      6  O   UNL     1      47.830   9.999   7.007 -0.01 +0.16    -0.480 OA
DOCKED: ATOM      7  H   UNL     1      48.744   9.804   7.316 +0.07 -0.12    +0.296 HD
DOCKED: ENDBRANCH   4   6
DOCKED: ENDBRANCH   3   4
DOCKED: ENDBRANCH   2   3
DOCKED: BRANCH   2   8
DOCKED: ATOM      8  C   UNL     1      49.299  10.830   9.541 -0.04 -0.15    +0.208 C 
DOCKED: BRANCH   8   9
DOCKED: ATOM      9  C   UNL     1      50.094  11.024   8.256 -0.00 -0.31    +0.317 C 
DOCKED: ATOM     10  O   UNL     1      50.018  12.032   7.565 -0.27 +0.19    -0.251 OA
DOCKED: BRANCH   9  11
DOCKED: ATOM     11  O   UNL     1      50.862   9.968   7.906 -0.09 +0.48    -0.480 OA
DOCKED: ATOM     12  H   UNL     1      51.555   9.693   8.542 -0.36 -0.44    +0.296 HD
DOCKED: ENDBRANCH   9  11
DOCKED: ENDBRANCH   8   9
DOCKED: ENDBRANCH   2   8
DOCKED: ENDBRANCH   1   2
DOCKED: BRANCH   1  13
DOCKED: ATOM     13  C   UNL     1      49.622   7.777  11.504 -0.06 -0.03    +0.101 C 
DOCKED: BRANCH  13  14
DOCKED: ATOM     14  N   UNL     1      50.845   8.090  12.296 -0.05 +0.09    -0.281 NA
DOCKED: BRANCH  14  15
DOCKED: ATOM     15  C   UNL     1      52.115   7.866  11.549 -0.12 -0.09    +0.208 C 
DOCKED: BRANCH  15  16
DOCKED: ATOM     16  C   UNL     1      52.052   8.207  10.059 -0.08 -0.24    +0.317 C 
DOCKED: ATOM     17  O   UNL     1      51.119   7.899   9.331 -0.08 +0.15    -0.251 OA
DOCKED: BRANCH  16  18
DOCKED: ATOM     18  O   UNL     1      53.118   8.899   9.604 -0.05 +0.52    -0.480 OA
DOCKED: ATOM     19  H   UNL     1      52.920   9.676   9.040 -0.41 -0.55    +0.296 HD
DOCKED: ENDBRANCH  16  18
DOCKED: ENDBRANCH  15  16
DOCKED: ENDBRANCH  14  15
DOCKED: BRANCH  14  20
DOCKED: ATOM     20  C   UNL     1      50.750   9.476  12.819 -0.21 -0.05    +0.208 C 
DOCKED: BRANCH  20  21
DOCKED: ATOM     21  C   UNL     1      51.854   9.739  13.836 -0.26 +0.22    +0.317 C 
DOCKED: ATOM     22  O   UNL     1      52.050  10.824  14.364 -0.51 -0.67    -0.251 OA
DOCKED: BRANCH  21  23
DOCKED: ATOM     23  O   UNL     1      52.694   8.688  13.987 -0.13 -0.15    -0.480 OA
DOCKED: ATOM     24  H   UNL     1      52.191   7.847  14.054 +0.10 -0.00    +0.296 HD
DOCKED: ENDBRANCH  21  23
DOCKED: ENDBRANCH  20  21
DOCKED: ENDBRANCH  14  20
DOCKED: ENDBRANCH  13  14
DOCKED: ENDBRANCH   1  13
DOCKED: TORSDOF 15
DOCKED: TER
DOCKED: ENDMDL
________________________________________________________________________________


	BEGINNING GENETIC ALGORITHM DOCKING 6 of 10
Run: 6 Seed: 1236925004 1606768976 [ Run 6 of 10 GA/GALS ]
Beginning LAMARCKIAN GENETIC ALGORITHM (LGA), with a maximum of 2500000 energy evaluations.

Final-Value: -9.540


	FINAL GENETIC ALGORITHM DOCKED STATE
	_______________________________________________


Detailed state:  trans 48.105 8.998 15.937 quatxyzw 0.442508 0.271046 0.259478 -0.814489 center 5.995 0.021 -2.239 ntor 15 31.1678 -19.2779 96.5863 11.0153 -60.6187 71.9713 27.0440 -18.8703 61.1774 -123.0248 -139.1987 -25.9627 -10.7846 124.8308 155.9035
State:	 48.105   8.998  15.937   0.763  0.467  0.447 -70.926     31.17  -19.28   96.59   11.02  -60.62   71.97   27.04  -18.87   61.18 -123.02 -139.20  -25.96  -10.78  124.83  155.90

DOCKED: MODEL        6
DOCKED: USER    Run = 6
DOCKED: USER    DPF = EDTA.dpf
DOCKED: USER  
DOCKED: USER    Estimated Free Energy of Binding    =   +1.37 kcal/mol  [=(1)+(2)+(3)-(4)]
DOCKED: USER    
DOCKED: USER    (1) Final Intermolecular Energy     =   -3.10 kcal/mol
DOCKED: USER        vdW + Hbond + desolv Energy     =   -1.49 kcal/mol
DOCKED: USER        Electrostatic Energy            =   -1.61 kcal/mol
DOCKED: USER    (2) Final Total Internal Energy     =   -6.44 kcal/mol
DOCKED: USER    (3) Torsional Free Energy           =   +4.47 kcal/mol
DOCKED: USER    (4) Unbound System's Energy  [=(2)] =   -6.44 kcal/mol
DOCKED: USER    
DOCKED: USER    
DOCKED: USER    NEWDPF move EDTA.pdbqt
DOCKED: USER    NEWDPF about 5.994792 0.021125 -2.239083
DOCKED: USER    NEWDPF tran0 48.105390 8.998081 15.936595
DOCKED: USER    NEWDPF quaternion0 0.442508 0.271046 0.259478 -0.814489
DOCKED: USER    NEWDPF axisangle0 0.762709 0.467176 0.447237 -70.926253
DOCKED: USER    NEWDPF quat0 0.762709 0.467176 0.447237 -70.926253
DOCKED: USER    NEWDPF dihe0 31.17 -19.28 96.59 11.02 -60.62 71.97 27.04 -18.87 61.18 -123.02 -139.20 -25.96 -10.78 124.83 155.90 
DOCKED: USER  keepresnum = 1 
DOCKED: USER  
DOCKED: REMARK SMILES O=C(O)CN(CCN(CC(=O)O)CC(=O)O)CC(=O)O
DOCKED: REMARK SMILES IDX 6 1 5 2 4 3 2 4 1 5 3 6 17 8 18 9 19 10 20 11 7 13 8 14 9 15
DOCKED: REMARK SMILES IDX 10 16 11 17 12 18 13 20 14 21 15 22 16 23
DOCKED: REMARK H PARENT 3 7 20 12 12 19 16 24
DOCKED: USER                              x       y       z     vdW  Elec       q    Type
DOCKED: USER                           _______ _______ _______ _____ _____    ______ ____
DOCKED: ROOT
DOCKED: ATOM      1  C   UNL     1      47.635   8.482  16.132 -0.09 -0.01    +0.101 C 
DOCKED: ENDROOT
DOCKED: BRANCH   1   2
DOCKED: ATOM      2  N   UNL     1      47.955   7.171  16.768 +0.00 +0.04    -0.281 NA
DOCKED: BRANCH   2   3
DOCKED: ATOM      3  C   UNL     1      46.656   6.537  17.141 +0.00 -0.03    +0.208 C 
DOCKED: BRANCH   3   4
DOCKED: ATOM      4  C   UNL     1      46.542   6.333  18.643 +0.01 -0.05    +0.317 C 
DOCKED: ATOM      5  O   UNL     1      45.491   6.074  19.214 +0.00 +0.04    -0.251 OA
DOCKED: BRANCH   4   6
DOCKED: ATOM      6  O   UNL     1      47.737   6.367  19.272 +0.01 +0.10    -0.480 OA
DOCKED: ATOM      7  H   UNL     1      48.359   6.936  18.765 +0.03 -0.06    +0.296 HD
DOCKED: ENDBRANCH   4   6
DOCKED: ENDBRANCH   3   4
DOCKED: ENDBRANCH   2   3
DOCKED: BRANCH   2   8
DOCKED: ATOM      8  C   UNL     1      48.797   6.302  15.898 -0.00 -0.04    +0.208 C 
DOCKED: BRANCH   8   9
DOCKED: ATOM      9  C   UNL     1      49.185   4.964  16.515 +0.00 -0.06    +0.317 C 
DOCKED: ATOM     10  O   UNL     1      49.569   4.007  15.855 -0.00 +0.05    -0.251 OA
DOCKED: BRANCH   9  11
DOCKED: ATOM     11  O   UNL     1      49.026   4.897  17.856 +0.00 +0.10    -0.480 OA
DOCKED: ATOM     12  H   UNL     1      48.997   5.748  18.343 +0.02 -0.06    +0.296 HD
DOCKED: ENDBRANCH   9  11
DOCKED: ENDBRANCH   8   9
DOCKED: ENDBRANCH   2   8
DOCKED: ENDBRANCH   1   2
DOCKED: BRANCH   1  13
DOCKED: ATOM     13  C   UNL     1      48.796   9.489  15.907 -0.14 -0.00    +0.101 C 
DOCKED: BRANCH  13  14
DOCKED: ATOM     14  N   UNL     1      49.946   9.323  16.841 -0.14 +0.04    -0.281 NA
DOCKED: BRANCH  14  15
DOCKED: ATOM     15  C   UNL     1      51.030  10.325  16.639 -0.22 +0.01    +0.208 C 
DOCKED: BRANCH  15  16
DOCKED: ATOM     16  C   UNL     1      51.913  10.077  15.415 -0.31 +0.26    +0.317 C 
DOCKED: ATOM     17  O   UNL     1      52.273   8.967  15.051 -0.30 -0.09    -0.251 OA
DOCKED: BRANCH  16  18
DOCKED: ATOM     18  O   UNL     1      52.261  11.198  14.748 -0.01 -1.83    -0.480 OA
DOCKED: ATOM     19  H   UNL     1      53.094  11.630  15.034 -0.03 +0.00    +0.296 HD
DOCKED: ENDBRANCH  16  18
DOCKED: ENDBRANCH  15  16
DOCKED: ENDBRANCH  14  15
DOCKED: BRANCH  14  20
DOCKED: ATOM     20  C   UNL     1      49.446   9.324  18.239 -0.16 -0.06    +0.208 C 
DOCKED: BRANCH  20  21
DOCKED: ATOM     21  C   UNL     1      50.355   8.484  19.129 -0.08 -0.10    +0.317 C 
DOCKED: ATOM     22  O   UNL     1      51.277   8.943  19.788 -0.15 +0.08    -0.251 OA
DOCKED: BRANCH  21  23
DOCKED: ATOM     23  O   UNL     1      50.134   7.154  19.006 +0.01 +0.12    -0.480 OA
DOCKED: ATOM     24  H   UNL     1      49.597   6.964  18.206 +0.05 -0.07    +0.296 HD
DOCKED: ENDBRANCH  21  23
DOCKED: ENDBRANCH  20  21
DOCKED: ENDBRANCH  14  20
DOCKED: ENDBRANCH  13  14
DOCKED: ENDBRANCH   1  13
DOCKED: TORSDOF 15
DOCKED: TER
DOCKED: ENDMDL
________________________________________________________________________________


	BEGINNING GENETIC ALGORITHM DOCKING 7 of 10
Run: 7 Seed: 1895526101 2006932707 [ Run 7 of 10 GA/GALS ]
Beginning LAMARCKIAN GENETIC ALGORITHM (LGA), with a maximum of 2500000 energy evaluations.

Final-Value: -9.485


	FINAL GENETIC ALGORITHM DOCKED STATE
	_______________________________________________


Detailed state:  trans 51.619 7.193 13.433 quatxyzw 0.127916 -0.898163 0.346442 -0.238576 center 5.995 0.021 -2.239 ntor 15 172.3000 47.6007 72.6453 38.7320 -114.7767 35.7163 146.0351 0.0096 180.0000 17.2569 36.2908 160.5487 -48.6066 -55.4979 -10.6497
State:	 51.619   7.193  13.433   0.132 -0.925  0.357 -152.395    172.30   47.60   72.65   38.73 -114.78   35.72  146.04    0.01  180.00   17.26   36.29  160.55  -48.61  -55.50  -10.65

DOCKED: MODEL        7
DOCKED: USER    Run = 7
DOCKED: USER    DPF = EDTA.dpf
DOCKED: USER  
DOCKED: USER    Estimated Free Energy of Binding    =   +0.78 kcal/mol  [=(1)+(2)+(3)-(4)]
DOCKED: USER    
DOCKED: USER    (1) Final Intermolecular Energy     =   -3.69 kcal/mol
DOCKED: USER        vdW + Hbond + desolv Energy     =   -2.46 kcal/mol
DOCKED: USER        Electrostatic Energy            =   -1.23 kcal/mol
DOCKED: USER    (2) Final Total Internal Energy     =   -5.79 kcal/mol
DOCKED: USER    (3) Torsional Free Energy           =   +4.47 kcal/mol
DOCKED: USER    (4) Unbound System's Energy  [=(2)] =   -5.79 kcal/mol
DOCKED: USER    
DOCKED: USER    
DOCKED: USER    NEWDPF move EDTA.pdbqt
DOCKED: USER    NEWDPF about 5.994792 0.021125 -2.239083
DOCKED: USER    NEWDPF tran0 51.619105 7.193115 13.432944
DOCKED: USER    NEWDPF quaternion0 0.127916 -0.898163 0.346442 -0.238576
DOCKED: USER    NEWDPF axisangle0 0.131720 -0.924870 0.356744 -152.394924
DOCKED: USER    NEWDPF quat0 0.131720 -0.924870 0.356744 -152.394924
DOCKED: USER    NEWDPF dihe0 172.30 47.60 72.65 38.73 -114.78 35.72 146.04 0.01 180.00 17.26 36.29 160.55 -48.61 -55.50 -10.65 
DOCKED: USER  keepresnum = 1 
DOCKED: USER  
DOCKED: REMARK SMILES O=C(O)CN(CCN(CC(=O)O)CC(=O)O)CC(=O)O
DOCKED: REMARK SMILES IDX 6 1 5 2 4 3 2 4 1 5 3 6 17 8 18 9 19 10 20 11 7 13 8 14 9 15
DOCKED: REMARK SMILES IDX 10 16 11 17 12 18 13 20 14 21 15 22 16 23
DOCKED: REMARK H PARENT 3 7 20 12 12 19 16 24
DOCKED: USER                              x       y       z     vdW  Elec       q    Type
DOCKED: USER                           _______ _______ _______ _____ _____    ______ ____
DOCKED: ROOT
DOCKED: ATOM      1  C   UNL     1      52.206   7.196  13.006 -0.13 -0.02    +0.101 C 
DOCKED: ENDROOT
DOCKED: BRANCH   1   2
DOCKED: ATOM      2  N   UNL     1      52.487   6.283  11.861 -0.01 +0.08    -0.281 NA
DOCKED: BRANCH   2   3
DOCKED: ATOM      3  C   UNL     1      52.987   7.131  10.738 -0.09 -0.09    +0.208 C 
DOCKED: BRANCH   3   4
DOCKED: ATOM      4  C   UNL     1      53.065   8.597  11.135 -0.12 -0.22    +0.317 C 
DOCKED: ATOM      5  O   UNL     1      54.117   9.207  11.273 -0.14 +0.17    -0.251 OA
DOCKED: BRANCH   4   6
DOCKED: ATOM      6  O   UNL     1      51.852   9.185  11.221 -0.01 +0.51    -0.480 OA
DOCKED: ATOM      7  H   UNL     1      51.945  10.070  11.641 -0.28 -0.51    +0.296 HD
DOCKED: ENDBRANCH   4   6
DOCKED: ENDBRANCH   3   4
DOCKED: ENDBRANCH   2   3
DOCKED: BRANCH   2   8
DOCKED: ATOM      8  C   UNL     1      53.425   5.183  12.221 -0.03 -0.06    +0.208 C 
DOCKED: BRANCH   8   9
DOCKED: ATOM      9  C   UNL     1      54.595   5.605  13.101 -0.09 -0.08    +0.317 C 
DOCKED: ATOM     10  O   UNL     1      54.850   5.077  14.176 -0.11 +0.06    -0.251 OA
DOCKED: BRANCH   9  11
DOCKED: ATOM     11  O   UNL     1      55.309   6.649  12.624 -0.11 +0.16    -0.480 OA
DOCKED: ATOM     12  H   UNL     1      54.802   7.418  12.289 +0.10 -0.09    +0.296 HD
DOCKED: ENDBRANCH   9  11
DOCKED: ENDBRANCH   8   9
DOCKED: ENDBRANCH   2   8
DOCKED: ENDBRANCH   1   2
DOCKED: BRANCH   1  13
DOCKED: ATOM     13  C   UNL     1      50.824   7.086  13.709 -0.06 -0.02    +0.101 C 
DOCKED: BRANCH  13  14
DOCKED: ATOM     14  N   UNL     1      50.730   7.823  15.001 -0.04 +0.03    -0.281 NA
DOCKED: BRANCH  14  15
DOCKED: ATOM     15  C   UNL     1      51.973   8.562  15.359 -0.10 +0.02    +0.208 C 
DOCKED: BRANCH  15  16
DOCKED: ATOM     16  C   UNL     1      51.942  10.059  15.050 -0.35 +0.33    +0.317 C 
DOCKED: ATOM     17  O   UNL     1      51.397  10.889  15.765 -0.44 -0.17    -0.251 OA
DOCKED: BRANCH  16  18
DOCKED: ATOM     18  O   UNL     1      52.583  10.403  13.913 -0.02 -1.53    -0.480 OA
DOCKED: ATOM     19  H   UNL     1      52.187  10.075  13.078 -0.31 +0.16    +0.296 HD
DOCKED: ENDBRANCH  16  18
DOCKED: ENDBRANCH  15  16
DOCKED: ENDBRANCH  14  15
DOCKED: BRANCH  14  20
DOCKED: ATOM     20  C   UNL     1      49.546   8.718  14.969 -0.09 -0.01    +0.208 C 
DOCKED: BRANCH  20  21
DOCKED: ATOM     21  C   UNL     1      49.153   9.031  13.531 +0.01 -0.03    +0.317 C 
DOCKED: ATOM     22  O   UNL     1      48.113   8.654  13.011 -0.07 +0.04    -0.251 OA
DOCKED: BRANCH  21  23
DOCKED: ATOM     23  O   UNL     1      50.139   9.645  12.835 -0.09 +0.10    -0.480 OA
DOCKED: ATOM     24  H   UNL     1      51.009   9.231  13.025 +0.14 -0.04    +0.296 HD
DOCKED: ENDBRANCH  21  23
DOCKED: ENDBRANCH  20  21
DOCKED: ENDBRANCH  14  20
DOCKED: ENDBRANCH  13  14
DOCKED: ENDBRANCH   1  13
DOCKED: TORSDOF 15
DOCKED: TER
DOCKED: ENDMDL
________________________________________________________________________________


	BEGINNING GENETIC ALGORITHM DOCKING 8 of 10
Run: 8 Seed: 1636061165 431604922 [ Run 8 of 10 GA/GALS ]
Beginning LAMARCKIAN GENETIC ALGORITHM (LGA), with a maximum of 2500000 energy evaluations.

Final-Value: -9.420


	FINAL GENETIC ALGORITHM DOCKED STATE
	_______________________________________________


Detailed state:  trans 58.450 8.342 8.841 quatxyzw -0.611521 -0.745073 0.261243 -0.051581 center 5.995 0.021 -2.239 ntor 15 84.2583 18.1919 -20.6720 3.7924 -148.7006 176.3934 -69.8697 46.7506 -179.5997 -5.8510 140.6863 -40.0282 -91.8488 96.6441 64.7826
State:	 58.450   8.342   8.841  -0.612 -0.746  0.262 -174.087     84.26   18.19  -20.67    3.79 -148.70  176.39  -69.87   46.75 -179.60   -5.85  140.69  -40.03  -91.85   96.64   64.78

DOCKED: MODEL        8
DOCKED: USER    Run = 8
DOCKED: USER    DPF = EDTA.dpf
DOCKED: USER  
DOCKED: USER    Estimated Free Energy of Binding    =   +1.71 kcal/mol  [=(1)+(2)+(3)-(4)]
DOCKED: USER    
DOCKED: USER    (1) Final Intermolecular Energy     =   -2.77 kcal/mol
DOCKED: USER        vdW + Hbond + desolv Energy     =   -2.64 kcal/mol
DOCKED: USER        Electrostatic Energy            =   -0.13 kcal/mol
DOCKED: USER    (2) Final Total Internal Energy     =   -6.65 kcal/mol
DOCKED: USER    (3) Torsional Free Energy           =   +4.47 kcal/mol
DOCKED: USER    (4) Unbound System's Energy  [=(2)] =   -6.65 kcal/mol
DOCKED: USER    
DOCKED: USER    
DOCKED: USER    NEWDPF move EDTA.pdbqt
DOCKED: USER    NEWDPF about 5.994792 0.021125 -2.239083
DOCKED: USER    NEWDPF tran0 58.449547 8.341597 8.841056
DOCKED: USER    NEWDPF quaternion0 -0.611521 -0.745073 0.261243 -0.051581
DOCKED: USER    NEWDPF axisangle0 -0.612336 -0.746066 0.261591 -174.086665
DOCKED: USER    NEWDPF quat0 -0.612336 -0.746066 0.261591 -174.086665
DOCKED: USER    NEWDPF dihe0 84.26 18.19 -20.67 3.79 -148.70 176.39 -69.87 46.75 -179.60 -5.85 140.69 -40.03 -91.85 96.64 64.78 
DOCKED: USER  keepresnum = 1 
DOCKED: USER  
DOCKED: REMARK SMILES O=C(O)CN(CCN(CC(=O)O)CC(=O)O)CC(=O)O
DOCKED: REMARK SMILES IDX 6 1 5 2 4 3 2 4 1 5 3 6 17 8 18 9 19 10 20 11 7 13 8 14 9 15
DOCKED: REMARK SMILES IDX 10 16 11 17 12 18 13 20 14 21 15 22 16 23
DOCKED: REMARK H PARENT 3 7 20 12 12 19 16 24
DOCKED: USER                              x       y       z     vdW  Elec       q    Type
DOCKED: USER                           _______ _______ _______ _____ _____    ______ ____
DOCKED: ROOT
DOCKED: ATOM      1  C   UNL     1      58.607   7.641   8.948 -0.17 -0.05    +0.101 C 
DOCKED: ENDROOT
DOCKED: BRANCH   1   2
DOCKED: ATOM      2  N   UNL     1      58.178   6.487   8.106 -0.03 +0.11    -0.281 NA
DOCKED: BRANCH   2   3
DOCKED: ATOM      3  C   UNL     1      59.250   6.266   7.090 -0.02 -0.07    +0.208 C 
DOCKED: BRANCH   3   4
DOCKED: ATOM      4  C   UNL     1      60.402   7.240   7.270 -0.01 -0.12    +0.317 C 
DOCKED: ATOM      5  O   UNL     1      61.261   7.123   8.134 -0.02 +0.09    -0.251 OA
DOCKED: BRANCH   4   6
DOCKED: ATOM      6  O   UNL     1      60.441   8.194   6.313 +0.02 +0.19    -0.480 OA
DOCKED: ATOM      7  H   UNL     1      59.802   8.908   6.535 +0.09 -0.13    +0.296 HD
DOCKED: ENDBRANCH   4   6
DOCKED: ENDBRANCH   3   4
DOCKED: ENDBRANCH   2   3
DOCKED: BRANCH   2   8
DOCKED: ATOM      8  C   UNL     1      57.881   5.269   8.912 -0.05 -0.08    +0.208 C 
DOCKED: BRANCH   8   9
DOCKED: ATOM      9  C   UNL     1      59.079   4.683   9.649 -0.04 -0.12    +0.317 C 
DOCKED: ATOM     10  O   UNL     1      59.768   3.779   9.195 -0.01 +0.08    -0.251 OA
DOCKED: BRANCH   9  11
DOCKED: ATOM     11  O   UNL     1      59.297   5.209  10.875 -0.04 +0.23    -0.480 OA
DOCKED: ATOM     12  H   UNL     1      58.560   5.714  11.279 -0.53 -0.25    +0.296 HD
DOCKED: ENDBRANCH   9  11
DOCKED: ENDBRANCH   8   9
DOCKED: ENDBRANCH   2   8
DOCKED: ENDBRANCH   1   2
DOCKED: BRANCH   1  13
DOCKED: ATOM     13  C   UNL     1      58.251   9.074   8.462 -0.29 -0.04    +0.101 C 
DOCKED: BRANCH  13  14
DOCKED: ATOM     14  N   UNL     1      59.431   9.929   8.150 -0.14 +0.12    -0.281 NA
DOCKED: BRANCH  14  15
DOCKED: ATOM     15  C   UNL     1      59.149  10.996   7.148 -0.31 -0.10    +0.208 C 
DOCKED: BRANCH  15  16
DOCKED: ATOM     16  C   UNL     1      60.373  11.495   6.380 -0.21 -0.16    +0.317 C 
DOCKED: ATOM     17  O   UNL     1      60.606  12.676   6.166 -0.26 +0.13    -0.251 OA
DOCKED: BRANCH  16  18
DOCKED: ATOM     18  O   UNL     1      61.199  10.514   5.957 +0.00 +0.22    -0.480 OA
DOCKED: ATOM     19  H   UNL     1      61.193   9.687   6.485 +0.09 -0.12    +0.296 HD
DOCKED: ENDBRANCH  16  18
DOCKED: ENDBRANCH  15  16
DOCKED: ENDBRANCH  14  15
DOCKED: BRANCH  14  20
DOCKED: ATOM     20  C   UNL     1      59.980  10.488   9.411 -0.32 -0.10    +0.208 C 
DOCKED: BRANCH  20  21
DOCKED: ATOM     21  C   UNL     1      61.502  10.405   9.413 -0.20 -0.12    +0.317 C 
DOCKED: ATOM     22  O   UNL     1      62.220  11.085  10.130 -0.29 +0.10    -0.251 OA
DOCKED: BRANCH  21  23
DOCKED: ATOM     23  O   UNL     1      61.989   9.608   8.432 +0.00 +0.17    -0.480 OA
DOCKED: ATOM     24  H   UNL     1      61.270   9.322   7.827 +0.10 -0.11    +0.296 HD
DOCKED: ENDBRANCH  21  23
DOCKED: ENDBRANCH  20  21
DOCKED: ENDBRANCH  14  20
DOCKED: ENDBRANCH  13  14
DOCKED: ENDBRANCH   1  13
DOCKED: TORSDOF 15
DOCKED: TER
DOCKED: ENDMDL
________________________________________________________________________________


	BEGINNING GENETIC ALGORITHM DOCKING 9 of 10
Run: 9 Seed: 452868552 648923712 [ Run 9 of 10 GA/GALS ]
Beginning LAMARCKIAN GENETIC ALGORITHM (LGA), with a maximum of 2500000 energy evaluations.

Final-Value: -10.450


	FINAL GENETIC ALGORITHM DOCKED STATE
	_______________________________________________


Detailed state:  trans 53.245 8.431 9.378 quatxyzw -0.317526 0.415956 -0.053937 0.850440 center 5.995 0.021 -2.239 ntor 15 -16.3864 -56.3135 58.3457 -6.4741 3.5559 60.1183 -129.8266 67.8996 53.3413 -139.5505 -177.0726 -34.5410 -82.2928 19.7880 -162.6664
State:	 53.245   8.431   9.378  -0.604  0.791 -0.103 63.481    -16.39  -56.31   58.35   -6.47    3.56   60.12 -129.83   67.90   53.34 -139.55 -177.07  -34.54  -82.29   19.79 -162.67

DOCKED: MODEL        9
DOCKED: USER    Run = 9
DOCKED: USER    DPF = EDTA.dpf
DOCKED: USER  
DOCKED: USER    Estimated Free Energy of Binding    =   +3.40 kcal/mol  [=(1)+(2)+(3)-(4)]
DOCKED: USER    
DOCKED: USER    (1) Final Intermolecular Energy     =   -1.07 kcal/mol
DOCKED: USER        vdW + Hbond + desolv Energy     =   -0.86 kcal/mol
DOCKED: USER        Electrostatic Energy            =   -0.21 kcal/mol
DOCKED: USER    (2) Final Total Internal Energy     =   -9.38 kcal/mol
DOCKED: USER    (3) Torsional Free Energy           =   +4.47 kcal/mol
DOCKED: USER    (4) Unbound System's Energy  [=(2)] =   -9.38 kcal/mol
DOCKED: USER    
DOCKED: USER    
DOCKED: USER    NEWDPF move EDTA.pdbqt
DOCKED: USER    NEWDPF about 5.994792 0.021125 -2.239083
DOCKED: USER    NEWDPF tran0 53.244920 8.430571 9.377997
DOCKED: USER    NEWDPF quaternion0 -0.317526 0.415956 -0.053937 0.850440
DOCKED: USER    NEWDPF axisangle0 -0.603579 0.790684 -0.102528 63.480874
DOCKED: USER    NEWDPF quat0 -0.603579 0.790684 -0.102528 63.480874
DOCKED: USER    NEWDPF dihe0 -16.39 -56.31 58.35 -6.47 3.56 60.12 -129.83 67.90 53.34 -139.55 -177.07 -34.54 -82.29 19.79 -162.67 
DOCKED: USER  keepresnum = 1 
DOCKED: USER  
DOCKED: REMARK SMILES O=C(O)CN(CCN(CC(=O)O)CC(=O)O)CC(=O)O
DOCKED: REMARK SMILES IDX 6 1 5 2 4 3 2 4 1 5 3 6 17 8 18 9 19 10 20 11 7 13 8 14 9 15
DOCKED: REMARK SMILES IDX 10 16 11 17 12 18 13 20 14 21 15 22 16 23
DOCKED: REMARK H PARENT 3 7 20 12 12 19 16 24
DOCKED: USER                              x       y       z     vdW  Elec       q    Type
DOCKED: USER                           _______ _______ _______ _____ _____    ______ ____
DOCKED: ROOT
DOCKED: ATOM      1  C   UNL     1      52.724   8.520   8.881 -0.12 -0.08    +0.101 C 
DOCKED: ENDROOT
DOCKED: BRANCH   1   2
DOCKED: ATOM      2  N   UNL     1      51.415   7.806   8.816 -0.06 +0.16    -0.281 NA
DOCKED: BRANCH   2   3
DOCKED: ATOM      3  C   UNL     1      50.382   8.738   9.358 -0.10 -0.15    +0.208 C 
DOCKED: BRANCH   3   4
DOCKED: ATOM      4  C   UNL     1      49.589   8.101  10.488 -0.03 -0.13    +0.317 C 
DOCKED: ATOM      5  O   UNL     1      48.366   8.097  10.539 -0.03 +0.08    -0.251 OA
DOCKED: BRANCH   4   6
DOCKED: ATOM      6  O   UNL     1      50.369   7.450  11.378 +0.02 +0.17    -0.480 OA
DOCKED: ATOM      7  H   UNL     1      51.242   7.253  10.969 +0.07 -0.12    +0.296 HD
DOCKED: ENDBRANCH   4   6
DOCKED: ENDBRANCH   3   4
DOCKED: ENDBRANCH   2   3
DOCKED: BRANCH   2   8
DOCKED: ATOM      8  C   UNL     1      51.096   7.318   7.445 -0.07 -0.09    +0.208 C 
DOCKED: BRANCH   8   9
DOCKED: ATOM      9  C   UNL     1      50.025   6.235   7.386 -0.01 -0.10    +0.317 C 
DOCKED: ATOM     10  O   UNL     1      49.260   6.100   6.441 -0.01 +0.07    -0.251 OA
DOCKED: BRANCH   9  11
DOCKED: ATOM     11  O   UNL     1      49.951   5.458   8.490 +0.00 +0.14    -0.480 OA
DOCKED: ATOM     12  H   UNL     1      50.762   4.971   8.746 +0.01 -0.09    +0.296 HD
DOCKED: ENDBRANCH   9  11
DOCKED: ENDBRANCH   8   9
DOCKED: ENDBRANCH   2   8
DOCKED: ENDBRANCH   1   2
DOCKED: BRANCH   1  13
DOCKED: ATOM     13  C   UNL     1      53.642   8.255  10.107 -0.24 -0.07    +0.101 C 
DOCKED: BRANCH  13  14
DOCKED: ATOM     14  N   UNL     1      53.283   7.042  10.895 -0.05 +0.11    -0.281 NA
DOCKED: BRANCH  14  15
DOCKED: ATOM     15  C   UNL     1      53.710   5.766  10.254 -0.03 -0.07    +0.208 C 
DOCKED: BRANCH  15  16
DOCKED: ATOM     16  C   UNL     1      52.563   4.866   9.792 +0.00 -0.10    +0.317 C 
DOCKED: ATOM     17  O   UNL     1      52.705   3.931   9.015 -0.00 +0.07    -0.251 OA
DOCKED: BRANCH  16  18
DOCKED: ATOM     18  O   UNL     1      51.363   5.180  10.325 +0.01 +0.14    -0.480 OA
DOCKED: ATOM     19  H   UNL     1      51.085   6.116  10.239 +0.03 -0.10    +0.296 HD
DOCKED: ENDBRANCH  16  18
DOCKED: ENDBRANCH  15  16
DOCKED: ENDBRANCH  14  15
DOCKED: BRANCH  14  20
DOCKED: ATOM     20  C   UNL     1      53.820   7.175  12.272 -0.12 -0.06    +0.208 C 
DOCKED: BRANCH  20  21
DOCKED: ATOM     21  C   UNL     1      52.838   6.598  13.285 -0.07 -0.06    +0.317 C 
DOCKED: ATOM     22  O   UNL     1      53.026   6.597  14.493 -0.13 +0.02    -0.251 OA
DOCKED: BRANCH  21  23
DOCKED: ATOM     23  O   UNL     1      51.801   5.950  12.704 +0.01 +0.12    -0.480 OA
DOCKED: ATOM     24  H   UNL     1      51.853   6.014  11.726 +0.05 -0.09    +0.296 HD
DOCKED: ENDBRANCH  21  23
DOCKED: ENDBRANCH  20  21
DOCKED: ENDBRANCH  14  20
DOCKED: ENDBRANCH  13  14
DOCKED: ENDBRANCH   1  13
DOCKED: TORSDOF 15
DOCKED: TER
DOCKED: ENDMDL
________________________________________________________________________________


	BEGINNING GENETIC ALGORITHM DOCKING 10 of 10
Run: 10 Seed: 1425048030 1164766420 [ Run 10 of 10 GA/GALS ]
Beginning LAMARCKIAN GENETIC ALGORITHM (LGA), with a maximum of 2500000 energy evaluations.

Final-Value: -10.229


	FINAL GENETIC ALGORITHM DOCKED STATE
	_______________________________________________


Detailed state:  trans 48.413 7.026 15.615 quatxyzw -0.418687 0.136923 -0.770250 -0.461160 center 5.995 0.021 -2.239 ntor 15 -20.7712 -100.4495 76.7827 91.5488 -17.3103 133.9025 -180.0000 -22.8048 30.9394 -165.4323 -179.9200 -92.5204 -23.9437 74.2769 -164.8950
State:	 48.413   7.026  15.615  -0.472  0.154 -0.868 -125.076    -20.77 -100.45   76.78   91.55  -17.31  133.90 -180.00  -22.80   30.94 -165.43 -179.92  -92.52  -23.94   74.28 -164.89

DOCKED: MODEL       10
DOCKED: USER    Run = 10
DOCKED: USER    DPF = EDTA.dpf
DOCKED: USER  
DOCKED: USER    Estimated Free Energy of Binding    =   +1.88 kcal/mol  [=(1)+(2)+(3)-(4)]
DOCKED: USER    
DOCKED: USER    (1) Final Intermolecular Energy     =   -2.59 kcal/mol
DOCKED: USER        vdW + Hbond + desolv Energy     =   -1.96 kcal/mol
DOCKED: USER        Electrostatic Energy            =   -0.63 kcal/mol
DOCKED: USER    (2) Final Total Internal Energy     =   -7.64 kcal/mol
DOCKED: USER    (3) Torsional Free Energy           =   +4.47 kcal/mol
DOCKED: USER    (4) Unbound System's Energy  [=(2)] =   -7.64 kcal/mol
DOCKED: USER    
DOCKED: USER    
DOCKED: USER    NEWDPF move EDTA.pdbqt
DOCKED: USER    NEWDPF about 5.994792 0.021125 -2.239083
DOCKED: USER    NEWDPF tran0 48.412601 7.025732 15.615387
DOCKED: USER    NEWDPF quaternion0 -0.418687 0.136923 -0.770250 -0.461160
DOCKED: USER    NEWDPF axisangle0 -0.471857 0.154312 -0.868066 -125.075997
DOCKED: USER    NEWDPF quat0 -0.471857 0.154312 -0.868066 -125.075997
DOCKED: USER    NEWDPF dihe0 -20.77 -100.45 76.78 91.55 -17.31 133.90 -180.00 -22.80 30.94 -165.43 -179.92 -92.52 -23.94 74.28 -164.89 
DOCKED: USER  keepresnum = 1 
DOCKED: USER  
DOCKED: REMARK SMILES O=C(O)CN(CCN(CC(=O)O)CC(=O)O)CC(=O)O
DOCKED: REMARK SMILES IDX 6 1 5 2 4 3 2 4 1 5 3 6 17 8 18 9 19 10 20 11 7 13 8 14 9 15
DOCKED: REMARK SMILES IDX 10 16 11 17 12 18 13 20 14 21 15 22 16 23
DOCKED: REMARK H PARENT 3 7 20 12 12 19 16 24
DOCKED: USER                              x       y       z     vdW  Elec       q    Type
DOCKED: USER                           _______ _______ _______ _____ _____    ______ ____
DOCKED: ROOT
DOCKED: ATOM      1  C   UNL     1      48.637   7.629  15.280 -0.05 -0.01    +0.101 C 
DOCKED: ENDROOT
DOCKED: BRANCH   1   2
DOCKED: ATOM      2  N   UNL     1      49.711   8.560  15.735 -0.05 +0.02    -0.281 NA
DOCKED: BRANCH   2   3
DOCKED: ATOM      3  C   UNL     1      50.156   9.331  14.536 -0.10 +0.01    +0.208 C 
DOCKED: BRANCH   3   4
DOCKED: ATOM      4  C   UNL     1      51.631   9.691  14.617 -0.31 +0.20    +0.317 C 
DOCKED: ATOM      5  O   UNL     1      52.116  10.684  14.092 -0.40 -0.65    -0.251 OA
DOCKED: BRANCH   4   6
DOCKED: ATOM      6  O   UNL     1      52.334   8.857  15.415 -0.05 -0.11    -0.480 OA
DOCKED: ATOM      7  H   UNL     1      51.728   8.434  16.064 -0.03 -0.03    +0.296 HD
DOCKED: ENDBRANCH   4   6
DOCKED: ENDBRANCH   3   4
DOCKED: ENDBRANCH   2   3
DOCKED: BRANCH   2   8
DOCKED: ATOM      8  C   UNL     1      49.273   9.435  16.858 -0.19 -0.02    +0.208 C 
DOCKED: BRANCH   8   9
DOCKED: ATOM      9  C   UNL     1      50.287   9.581  17.986 -0.13 -0.09    +0.317 C 
DOCKED: ATOM     10  O   UNL     1      49.982   9.546  19.171 -0.17 +0.10    -0.251 OA
DOCKED: BRANCH   9  11
DOCKED: ATOM     11  O   UNL     1      51.555   9.804  17.576 -0.10 +0.13    -0.480 OA
DOCKED: ATOM     12  H   UNL     1      52.171   9.042  17.600 -0.36 -0.19    +0.296 HD
DOCKED: ENDBRANCH   9  11
DOCKED: ENDBRANCH   8   9
DOCKED: ENDBRANCH   2   8
DOCKED: ENDBRANCH   1   2
DOCKED: BRANCH   1  13
DOCKED: ATOM     13  C   UNL     1      48.403   6.328  16.098 -0.02 -0.02    +0.101 C 
DOCKED: BRANCH  13  14
DOCKED: ATOM     14  N   UNL     1      49.064   6.312  17.433 +0.00 +0.06    -0.281 NA
DOCKED: BRANCH  14  15
DOCKED: ATOM     15  C   UNL     1      48.161   5.896  18.543 +0.00 -0.04    +0.208 C 
DOCKED: BRANCH  15  16
DOCKED: ATOM     16  C   UNL     1      47.907   6.972  19.599 +0.01 -0.07    +0.317 C 
DOCKED: ATOM     17  O   UNL     1      46.815   7.487  19.795 -0.00 +0.05    -0.251 OA
DOCKED: BRANCH  16  18
DOCKED: ATOM     18  O   UNL     1      48.997   7.308  20.321 +0.01 +0.12    -0.480 OA
DOCKED: ATOM     19  H   UNL     1      49.692   7.811  19.845 +0.05 -0.08    +0.296 HD
DOCKED: ENDBRANCH  16  18
DOCKED: ENDBRANCH  15  16
DOCKED: ENDBRANCH  14  15
DOCKED: BRANCH  14  20
DOCKED: ATOM     20  C   UNL     1      50.282   5.465  17.366 -0.01 -0.05    +0.208 C 
DOCKED: BRANCH  20  21
DOCKED: ATOM     21  C   UNL     1      51.463   6.271  16.837 -0.04 -0.07    +0.317 C 
DOCKED: ATOM     22  O   UNL     1      52.235   6.897  17.548 -0.09 +0.08    -0.251 OA
DOCKED: BRANCH  21  23
DOCKED: ATOM     23  O   UNL     1      51.486   6.347  15.485 -0.01 +0.09    -0.480 OA
DOCKED: ATOM     24  H   UNL     1      51.056   7.174  15.176 +0.08 -0.04    +0.296 HD
DOCKED: ENDBRANCH  21  23
DOCKED: ENDBRANCH  20  21
DOCKED: ENDBRANCH  14  20
DOCKED: ENDBRANCH  13  14
DOCKED: ENDBRANCH   1  13
DOCKED: TORSDOF 15
DOCKED: TER
DOCKED: ENDMDL
________________________________________________________________________________

DPF> analysis


		CLUSTER ANALYSIS OF CONFORMATIONS
		_________________________________

Number of conformations = 10

RMSD cluster analysis will be performed using the ligand atoms only (24 / 24 total atoms).

Outputting structurally similar clusters, ranked in order of increasing energy.


________________________________________________________________________________

Number of distinct conformational clusters found = 9,  out of 10 runs,
Using an rmsd-tolerance of 2.0 A


	CLUSTERING HISTOGRAM
	____________________

________________________________________________________________________________
     |           |     |           |     |                                    
Clus | Lowest    | Run | Mean      | Num | Histogram                          
-ter | Binding   |     | Binding   | in  |                                    
Rank | Energy    |     | Energy    | Clus|    5    10   15   20   25   30   35
_____|___________|_____|___________|_____|____:____|____:____|____:____|____:___
   1 |     -0.11 |   5 |     -0.11 |   1 |#
   2 |     +0.78 |   7 |     +0.78 |   1 |#
   3 |     +1.37 |   6 |     +1.63 |   2 |##
   4 |     +1.53 |   4 |     +1.53 |   1 |#
   5 |     +1.71 |   8 |     +1.71 |   1 |#
   6 |     +1.85 |   3 |     +1.85 |   1 |#
   7 |     +2.28 |   2 |     +2.28 |   1 |#
   8 |     +2.81 |   1 |     +2.81 |   1 |#
   9 |     +3.40 |   9 |     +3.40 |   1 |#
_____|___________|_____|___________|_____|______________________________________


Number of multi-member conformational clusters found = 1, out of 10 runs.

	RMSD TABLE
	__________

_____________________________________________________________________
     |      |      |           |         |                 |
Rank | Sub- | Run  | Binding   | Cluster | Reference       | Grep
     | Rank |      | Energy    | RMSD    | RMSD            | Pattern
_____|______|______|___________|_________|_________________|___________
   1      1      5       -0.11      0.00     44.31           RANKING
   2      1      7       +0.78      0.00     46.75           RANKING
   3      1      6       +1.37      0.00     46.08           RANKING
   3      2     10       +1.88      1.98     46.66           RANKING
   4      1      4       +1.53      0.00     51.89           RANKING
   5      1      8       +1.71      0.00     52.62           RANKING
   6      1      3       +1.85      0.00     45.51           RANKING
   7      1      2       +2.28      0.00     46.83           RANKING
   8      1      1       +2.81      0.00     44.78           RANKING
   9      1      9       +3.40      0.00     44.96           RANKING
_______________________________________________________________________



	INFORMATION ENTROPY ANALYSIS FOR THIS CLUSTERING
	________________________________________________


Information entropy for this clustering = 0.94  (rmstol = 2.00 Angstrom)

_______________________________________________________________________


	STATISTICAL MECHANICAL ANALYSIS
	_______________________________


Partition function, Q =     9.97            at Temperature, T = 298.15 K
Free energy,        A ~ -1362.49 kcal/mol   at Temperature, T = 298.15 K
Internal energy,    U =     1.75 kcal/mol   at Temperature, T = 298.15 K
Entropy,            S =     4.58 kcal/mol/K at Temperature, T = 298.15 K

_______________________________________________________________________


	LOWEST ENERGY DOCKED CONFORMATION from EACH CLUSTER
	___________________________________________________



Keeping original residue number (specified in the input PDBQ file) for outputting.

MODEL        5
USER    Run = 5
USER    Cluster Rank = 1
USER    Number of conformations in this cluster = 1
USER  
USER    RMSD from reference structure       = 44.310 A
USER  
USER    Estimated Free Energy of Binding    =   -0.11 kcal/mol  [=(1)+(2)+(3)-(4)]
USER    Estimated Inhibition Constant, Ki   =  831.56 mM (millimolar)  [Temperature = 298.15 K]
USER    
USER    (1) Final Intermolecular Energy     =   -4.58 kcal/mol
USER        vdW + Hbond + desolv Energy     =   -3.55 kcal/mol
USER        Electrostatic Energy            =   -1.04 kcal/mol
USER    (2) Final Total Internal Energy     =   -4.25 kcal/mol
USER    (3) Torsional Free Energy           =   +4.47 kcal/mol
USER    (4) Unbound System's Energy  [=(2)] =   -4.25 kcal/mol
USER    
USER    
USER  
USER    DPF = EDTA.dpf
USER    NEWDPF move	EDTA.pdbqt
USER    NEWDPF about	5.994792 0.021125 -2.239083
USER    NEWDPF tran0	49.163512 8.486207 11.426375
USER    NEWDPF axisangle0	-0.888691 0.432255 -0.152918 177.273953
USER    NEWDPF quaternion0	-0.888440 0.432133 -0.152875 0.023787
USER    NEWDPF dihe0	-37.62 -58.33 -127.37 -48.29 17.82 49.58 22.10 62.57 -23.73 -158.20 -27.59 -7.10 -59.72 -169.09 -69.50 
USER  
USER                              x       y       z    vdW   Elec        q     RMS 
ATOM      1  C   UNL     1      48.756   9.016  11.144 -0.14 -0.04    +0.101    44.310
ATOM      2  N   UNL     1      48.729   9.465   9.722 -0.08 +0.13    -0.281    44.310
ATOM      3  C   UNL     1      47.314   9.358   9.257 -0.08 -0.06    +0.208    44.310
ATOM      4  C   UNL     1      47.042  10.270   8.071 -0.06 -0.08    +0.317    44.310
ATOM      5  O   UNL     1      46.259  11.210   8.104 -0.64 +0.02    -0.251    44.310
ATOM      6  O   UNL     1      47.830   9.999   7.007 -0.01 +0.16    -0.480    44.310
ATOM      7  H   UNL     1      48.744   9.804   7.316 +0.07 -0.12    +0.296    44.310
ATOM      8  C   UNL     1      49.299  10.830   9.541 -0.04 -0.15    +0.208    44.310
ATOM      9  C   UNL     1      50.094  11.024   8.256 -0.00 -0.31    +0.317    44.310
ATOM     10  O   UNL     1      50.018  12.032   7.565 -0.27 +0.19    -0.251    44.310
ATOM     11  O   UNL     1      50.862   9.968   7.906 -0.09 +0.48    -0.480    44.310
ATOM     12  H   UNL     1      51.555   9.693   8.542 -0.36 -0.44    +0.296    44.310
ATOM     13  C   UNL     1      49.622   7.777  11.504 -0.06 -0.03    +0.101    44.310
ATOM     14  N   UNL     1      50.845   8.090  12.296 -0.05 +0.09    -0.281    44.310
ATOM     15  C   UNL     1      52.115   7.866  11.549 -0.12 -0.09    +0.208    44.310
ATOM     16  C   UNL     1      52.052   8.207  10.059 -0.08 -0.24    +0.317    44.310
ATOM     17  O   UNL     1      51.119   7.899   9.331 -0.08 +0.15    -0.251    44.310
ATOM     18  O   UNL     1      53.118   8.899   9.604 -0.05 +0.52    -0.480    44.310
ATOM     19  H   UNL     1      52.920   9.676   9.040 -0.41 -0.55    +0.296    44.310
ATOM     20  C   UNL     1      50.750   9.476  12.819 -0.21 -0.05    +0.208    44.310
ATOM     21  C   UNL     1      51.854   9.739  13.836 -0.26 +0.22    +0.317    44.310
ATOM     22  O   UNL     1      52.050  10.824  14.364 -0.51 -0.67    -0.251    44.310
ATOM     23  O   UNL     1      52.694   8.688  13.987 -0.13 -0.15    -0.480    44.310
ATOM     24  H   UNL     1      52.191   7.847  14.054 +0.10 -0.00    +0.296    44.310
TER
ENDMDL
MODEL        7
USER    Run = 7
USER    Cluster Rank = 2
USER    Number of conformations in this cluster = 1
USER  
USER    RMSD from reference structure       = 46.749 A
USER  
USER    Estimated Free Energy of Binding    =   +0.78 kcal/mol  [=(1)+(2)+(3)-(4)]
USER    
USER    (1) Final Intermolecular Energy     =   -3.69 kcal/mol
USER        vdW + Hbond + desolv Energy     =   -2.46 kcal/mol
USER        Electrostatic Energy            =   -1.23 kcal/mol
USER    (2) Final Total Internal Energy     =   -5.79 kcal/mol
USER    (3) Torsional Free Energy           =   +4.47 kcal/mol
USER    (4) Unbound System's Energy  [=(2)] =   -5.79 kcal/mol
USER    
USER    
USER  
USER    DPF = EDTA.dpf
USER    NEWDPF move	EDTA.pdbqt
USER    NEWDPF about	5.994792 0.021125 -2.239083
USER    NEWDPF tran0	51.619105 7.193115 13.432944
USER    NEWDPF axisangle0	0.131720 -0.924870 0.356744 -152.394924
USER    NEWDPF quaternion0	0.127916 -0.898163 0.346442 -0.238576
USER    NEWDPF dihe0	172.30 47.60 72.65 38.73 -114.78 35.72 146.04 0.01 180.00 17.26 36.29 160.55 -48.61 -55.50 -10.65 
USER  
USER                              x       y       z    vdW   Elec        q     RMS 
ATOM      1  C   UNL     1      52.206   7.196  13.006 -0.13 -0.02    +0.101    46.749
ATOM      2  N   UNL     1      52.487   6.283  11.861 -0.01 +0.08    -0.281    46.749
ATOM      3  C   UNL     1      52.987   7.131  10.738 -0.09 -0.09    +0.208    46.749
ATOM      4  C   UNL     1      53.065   8.597  11.135 -0.12 -0.22    +0.317    46.749
ATOM      5  O   UNL     1      54.117   9.207  11.273 -0.14 +0.17    -0.251    46.749
ATOM      6  O   UNL     1      51.852   9.185  11.221 -0.01 +0.51    -0.480    46.749
ATOM      7  H   UNL     1      51.945  10.070  11.641 -0.28 -0.51    +0.296    46.749
ATOM      8  C   UNL     1      53.425   5.183  12.221 -0.03 -0.06    +0.208    46.749
ATOM      9  C   UNL     1      54.595   5.605  13.101 -0.09 -0.08    +0.317    46.749
ATOM     10  O   UNL     1      54.850   5.077  14.176 -0.11 +0.06    -0.251    46.749
ATOM     11  O   UNL     1      55.309   6.649  12.624 -0.11 +0.16    -0.480    46.749
ATOM     12  H   UNL     1      54.802   7.418  12.289 +0.10 -0.09    +0.296    46.749
ATOM     13  C   UNL     1      50.824   7.086  13.709 -0.06 -0.02    +0.101    46.749
ATOM     14  N   UNL     1      50.730   7.823  15.001 -0.04 +0.03    -0.281    46.749
ATOM     15  C   UNL     1      51.973   8.562  15.359 -0.10 +0.02    +0.208    46.749
ATOM     16  C   UNL     1      51.942  10.059  15.050 -0.35 +0.33    +0.317    46.749
ATOM     17  O   UNL     1      51.397  10.889  15.765 -0.44 -0.17    -0.251    46.749
ATOM     18  O   UNL     1      52.583  10.403  13.913 -0.02 -1.53    -0.480    46.749
ATOM     19  H   UNL     1      52.187  10.075  13.078 -0.31 +0.16    +0.296    46.749
ATOM     20  C   UNL     1      49.546   8.718  14.969 -0.09 -0.01    +0.208    46.749
ATOM     21  C   UNL     1      49.153   9.031  13.531 +0.01 -0.03    +0.317    46.749
ATOM     22  O   UNL     1      48.113   8.654  13.011 -0.07 +0.04    -0.251    46.749
ATOM     23  O   UNL     1      50.139   9.645  12.835 -0.09 +0.10    -0.480    46.749
ATOM     24  H   UNL     1      51.009   9.231  13.025 +0.14 -0.04    +0.296    46.749
TER
ENDMDL
MODEL        6
USER    Run = 6
USER    Cluster Rank = 3
USER    Number of conformations in this cluster = 2
USER  
USER    RMSD from reference structure       = 46.080 A
USER  
USER    Estimated Free Energy of Binding    =   +1.37 kcal/mol  [=(1)+(2)+(3)-(4)]
USER    
USER    (1) Final Intermolecular Energy     =   -3.10 kcal/mol
USER        vdW + Hbond + desolv Energy     =   -1.49 kcal/mol
USER        Electrostatic Energy            =   -1.61 kcal/mol
USER    (2) Final Total Internal Energy     =   -6.44 kcal/mol
USER    (3) Torsional Free Energy           =   +4.47 kcal/mol
USER    (4) Unbound System's Energy  [=(2)] =   -6.44 kcal/mol
USER    
USER    
USER  
USER    DPF = EDTA.dpf
USER    NEWDPF move	EDTA.pdbqt
USER    NEWDPF about	5.994792 0.021125 -2.239083
USER    NEWDPF tran0	48.105390 8.998081 15.936595
USER    NEWDPF axisangle0	0.762709 0.467176 0.447237 -70.926253
USER    NEWDPF quaternion0	0.442508 0.271046 0.259478 -0.814489
USER    NEWDPF dihe0	31.17 -19.28 96.59 11.02 -60.62 71.97 27.04 -18.87 61.18 -123.02 -139.20 -25.96 -10.78 124.83 155.90 
USER  
USER                              x       y       z    vdW   Elec        q     RMS 
ATOM      1  C   UNL     1      47.635   8.482  16.132 -0.09 -0.01    +0.101    46.080
ATOM      2  N   UNL     1      47.955   7.171  16.768 +0.00 +0.04    -0.281    46.080
ATOM      3  C   UNL     1      46.656   6.537  17.141 +0.00 -0.03    +0.208    46.080
ATOM      4  C   UNL     1      46.542   6.333  18.643 +0.01 -0.05    +0.317    46.080
ATOM      5  O   UNL     1      45.491   6.074  19.214 +0.00 +0.04    -0.251    46.080
ATOM      6  O   UNL     1      47.737   6.367  19.272 +0.01 +0.10    -0.480    46.080
ATOM      7  H   UNL     1      48.359   6.936  18.765 +0.03 -0.06    +0.296    46.080
ATOM      8  C   UNL     1      48.797   6.302  15.898 -0.00 -0.04    +0.208    46.080
ATOM      9  C   UNL     1      49.185   4.964  16.515 +0.00 -0.06    +0.317    46.080
ATOM     10  O   UNL     1      49.569   4.007  15.855 -0.00 +0.05    -0.251    46.080
ATOM     11  O   UNL     1      49.026   4.897  17.856 +0.00 +0.10    -0.480    46.080
ATOM     12  H   UNL     1      48.997   5.748  18.343 +0.02 -0.06    +0.296    46.080
ATOM     13  C   UNL     1      48.796   9.489  15.907 -0.14 -0.00    +0.101    46.080
ATOM     14  N   UNL     1      49.946   9.323  16.841 -0.14 +0.04    -0.281    46.080
ATOM     15  C   UNL     1      51.030  10.325  16.639 -0.22 +0.01    +0.208    46.080
ATOM     16  C   UNL     1      51.913  10.077  15.415 -0.31 +0.26    +0.317    46.080
ATOM     17  O   UNL     1      52.273   8.967  15.051 -0.30 -0.09    -0.251    46.080
ATOM     18  O   UNL     1      52.261  11.198  14.748 -0.01 -1.83    -0.480    46.080
ATOM     19  H   UNL     1      53.094  11.630  15.034 -0.03 +0.00    +0.296    46.080
ATOM     20  C   UNL     1      49.446   9.324  18.239 -0.16 -0.06    +0.208    46.080
ATOM     21  C   UNL     1      50.355   8.484  19.129 -0.08 -0.10    +0.317    46.080
ATOM     22  O   UNL     1      51.277   8.943  19.788 -0.15 +0.08    -0.251    46.080
ATOM     23  O   UNL     1      50.134   7.154  19.006 +0.01 +0.12    -0.480    46.080
ATOM     24  H   UNL     1      49.597   6.964  18.206 +0.05 -0.07    +0.296    46.080
TER
ENDMDL
MODEL        4
USER    Run = 4
USER    Cluster Rank = 4
USER    Number of conformations in this cluster = 1
USER  
USER    RMSD from reference structure       = 51.886 A
USER  
USER    Estimated Free Energy of Binding    =   +1.53 kcal/mol  [=(1)+(2)+(3)-(4)]
USER    
USER    (1) Final Intermolecular Energy     =   -2.94 kcal/mol
USER        vdW + Hbond + desolv Energy     =   -2.89 kcal/mol
USER        Electrostatic Energy            =   -0.05 kcal/mol
USER    (2) Final Total Internal Energy     =   -6.75 kcal/mol
USER    (3) Torsional Free Energy           =   +4.47 kcal/mol
USER    (4) Unbound System's Energy  [=(2)] =   -6.75 kcal/mol
USER    
USER    
USER  
USER    DPF = EDTA.dpf
USER    NEWDPF move	EDTA.pdbqt
USER    NEWDPF about	5.994792 0.021125 -2.239083
USER    NEWDPF tran0	52.453141 9.590570 20.555770
USER    NEWDPF axisangle0	0.485428 -0.847216 -0.215837 129.600062
USER    NEWDPF quaternion0	0.439228 -0.766584 -0.195295 0.425779
USER    NEWDPF dihe0	-40.05 51.53 -65.26 -144.72 21.93 -173.75 -0.22 153.01 -164.29 9.88 -25.52 83.75 -46.24 -149.07 -23.33 
USER  
USER                              x       y       z    vdW   Elec        q     RMS 
ATOM      1  C   UNL     1      52.662  10.012  21.108 -0.27 -0.03    +0.101    51.886
ATOM      2  N   UNL     1      53.578  11.187  21.043 -0.83 +0.01    -0.281    51.886
ATOM      3  C   UNL     1      52.981  12.254  21.902 -0.35 -0.05    +0.208    51.886
ATOM      4  C   UNL     1      51.929  11.692  22.844 -0.14 -0.10    +0.317    51.886
ATOM      5  O   UNL     1      50.734  11.942  22.752 -0.19 +0.08    -0.251    51.886
ATOM      6  O   UNL     1      52.434  10.807  23.731 +0.01 +0.15    -0.480    51.886
ATOM      7  H   UNL     1      53.062  10.204  23.273 +0.09 -0.09    +0.296    51.886
ATOM      8  C   UNL     1      54.977  10.846  21.428 -0.19 -0.06    +0.208    51.886
ATOM      9  C   UNL     1      55.107  10.057  22.725 -0.15 -0.11    +0.317    51.886
ATOM     10  O   UNL     1      55.141  10.583  23.830 -0.10 +0.08    -0.251    51.886
ATOM     11  O   UNL     1      55.234   8.721  22.559 -0.05 +0.18    -0.480    51.886
ATOM     12  H   UNL     1      55.908   8.415  21.917 +0.00 -0.14    +0.296    51.886
ATOM     13  C   UNL     1      52.256   9.325  19.774 -0.24 -0.04    +0.101    51.886
ATOM     14  N   UNL     1      51.855   7.897  19.914 -0.06 +0.09    -0.281    51.886
ATOM     15  C   UNL     1      52.981   6.939  19.726 -0.09 -0.07    +0.208    51.886
ATOM     16  C   UNL     1      54.318   7.397  20.311 -0.12 -0.12    +0.317    51.886
ATOM     17  O   UNL     1      54.947   8.360  19.894 -0.28 +0.12    -0.251    51.886
ATOM     18  O   UNL     1      54.753   6.651  21.349 -0.01 +0.16    -0.480    51.886
ATOM     19  H   UNL     1      54.260   6.754  22.191 +0.04 -0.09    +0.296    51.886
ATOM     20  C   UNL     1      51.178   7.703  21.221 -0.03 -0.06    +0.208    51.886
ATOM     21  C   UNL     1      52.147   7.116  22.241 -0.00 -0.09    +0.317    51.886
ATOM     22  O   UNL     1      52.259   5.919  22.464 -0.00 +0.07    -0.251    51.886
ATOM     23  O   UNL     1      52.768   8.061  22.985 +0.02 +0.14    -0.480    51.886
ATOM     24  H   UNL     1      53.707   7.819  23.141 +0.04 -0.09    +0.296    51.886
TER
ENDMDL
MODEL        8
USER    Run = 8
USER    Cluster Rank = 5
USER    Number of conformations in this cluster = 1
USER  
USER    RMSD from reference structure       = 52.623 A
USER  
USER    Estimated Free Energy of Binding    =   +1.71 kcal/mol  [=(1)+(2)+(3)-(4)]
USER    
USER    (1) Final Intermolecular Energy     =   -2.77 kcal/mol
USER        vdW + Hbond + desolv Energy     =   -2.64 kcal/mol
USER        Electrostatic Energy            =   -0.13 kcal/mol
USER    (2) Final Total Internal Energy     =   -6.65 kcal/mol
USER    (3) Torsional Free Energy           =   +4.47 kcal/mol
USER    (4) Unbound System's Energy  [=(2)] =   -6.65 kcal/mol
USER    
USER    
USER  
USER    DPF = EDTA.dpf
USER    NEWDPF move	EDTA.pdbqt
USER    NEWDPF about	5.994792 0.021125 -2.239083
USER    NEWDPF tran0	58.449547 8.341597 8.841056
USER    NEWDPF axisangle0	-0.612336 -0.746066 0.261591 -174.086665
USER    NEWDPF quaternion0	-0.611521 -0.745073 0.261243 -0.051581
USER    NEWDPF dihe0	84.26 18.19 -20.67 3.79 -148.70 176.39 -69.87 46.75 -179.60 -5.85 140.69 -40.03 -91.85 96.64 64.78 
USER  
USER                              x       y       z    vdW   Elec        q     RMS 
ATOM      1  C   UNL     1      58.607   7.641   8.948 -0.17 -0.05    +0.101    52.623
ATOM      2  N   UNL     1      58.178   6.487   8.106 -0.03 +0.11    -0.281    52.623
ATOM      3  C   UNL     1      59.250   6.266   7.090 -0.02 -0.07    +0.208    52.623
ATOM      4  C   UNL     1      60.402   7.240   7.270 -0.01 -0.12    +0.317    52.623
ATOM      5  O   UNL     1      61.261   7.123   8.134 -0.02 +0.09    -0.251    52.623
ATOM      6  O   UNL     1      60.441   8.194   6.313 +0.02 +0.19    -0.480    52.623
ATOM      7  H   UNL     1      59.802   8.908   6.535 +0.09 -0.13    +0.296    52.623
ATOM      8  C   UNL     1      57.881   5.269   8.912 -0.05 -0.08    +0.208    52.623
ATOM      9  C   UNL     1      59.079   4.683   9.649 -0.04 -0.12    +0.317    52.623
ATOM     10  O   UNL     1      59.768   3.779   9.195 -0.01 +0.08    -0.251    52.623
ATOM     11  O   UNL     1      59.297   5.209  10.875 -0.04 +0.23    -0.480    52.623
ATOM     12  H   UNL     1      58.560   5.714  11.279 -0.53 -0.25    +0.296    52.623
ATOM     13  C   UNL     1      58.251   9.074   8.462 -0.29 -0.04    +0.101    52.623
ATOM     14  N   UNL     1      59.431   9.929   8.150 -0.14 +0.12    -0.281    52.623
ATOM     15  C   UNL     1      59.149  10.996   7.148 -0.31 -0.10    +0.208    52.623
ATOM     16  C   UNL     1      60.373  11.495   6.380 -0.21 -0.16    +0.317    52.623
ATOM     17  O   UNL     1      60.606  12.676   6.166 -0.26 +0.13    -0.251    52.623
ATOM     18  O   UNL     1      61.199  10.514   5.957 +0.00 +0.22    -0.480    52.623
ATOM     19  H   UNL     1      61.193   9.687   6.485 +0.09 -0.12    +0.296    52.623
ATOM     20  C   UNL     1      59.980  10.488   9.411 -0.32 -0.10    +0.208    52.623
ATOM     21  C   UNL     1      61.502  10.405   9.413 -0.20 -0.12    +0.317    52.623
ATOM     22  O   UNL     1      62.220  11.085  10.130 -0.29 +0.10    -0.251    52.623
ATOM     23  O   UNL     1      61.989   9.608   8.432 +0.00 +0.17    -0.480    52.623
ATOM     24  H   UNL     1      61.270   9.322   7.827 +0.10 -0.11    +0.296    52.623
TER
ENDMDL
MODEL        3
USER    Run = 3
USER    Cluster Rank = 6
USER    Number of conformations in this cluster = 1
USER  
USER    RMSD from reference structure       = 45.513 A
USER  
USER    Estimated Free Energy of Binding    =   +1.85 kcal/mol  [=(1)+(2)+(3)-(4)]
USER    
USER    (1) Final Intermolecular Energy     =   -2.63 kcal/mol
USER        vdW + Hbond + desolv Energy     =   -2.34 kcal/mol
USER        Electrostatic Energy            =   -0.28 kcal/mol
USER    (2) Final Total Internal Energy     =   -6.19 kcal/mol
USER    (3) Torsional Free Energy           =   +4.47 kcal/mol
USER    (4) Unbound System's Energy  [=(2)] =   -6.19 kcal/mol
USER    
USER    
USER  
USER    DPF = EDTA.dpf
USER    NEWDPF move	EDTA.pdbqt
USER    NEWDPF about	5.994792 0.021125 -2.239083
USER    NEWDPF tran0	51.302761 6.564589 9.530285
USER    NEWDPF axisangle0	0.437662 -0.137009 0.888640 -153.034893
USER    NEWDPF quaternion0	0.425600 -0.133233 0.864150 -0.233149
USER    NEWDPF dihe0	92.66 101.83 43.95 34.22 -108.17 124.59 -81.05 54.57 -118.62 3.35 176.08 -67.35 -0.19 20.78 -60.41 
USER  
USER                              x       y       z    vdW   Elec        q     RMS 
ATOM      1  C   UNL     1      51.729   6.315   8.999 -0.04 -0.04    +0.101    45.513
ATOM      2  N   UNL     1      53.061   5.660   9.151 -0.01 +0.10    -0.281    45.513
ATOM      3  C   UNL     1      53.580   5.402   7.774 -0.03 -0.07    +0.208    45.513
ATOM      4  C   UNL     1      53.785   6.694   7.000 -0.06 -0.12    +0.317    45.513
ATOM      5  O   UNL     1      54.873   7.070   6.585 -0.09 +0.09    -0.251    45.513
ATOM      6  O   UNL     1      52.627   7.335   6.729 -0.05 +0.19    -0.480    45.513
ATOM      7  H   UNL     1      52.415   7.955   7.463 +0.06 -0.15    +0.296    45.513
ATOM      8  C   UNL     1      54.001   6.460   9.985 -0.06 -0.08    +0.208    45.513
ATOM      9  C   UNL     1      54.218   7.891   9.509 -0.13 -0.17    +0.317    45.513
ATOM     10  O   UNL     1      55.283   8.484   9.627 -0.25 +0.12    -0.251    45.513
ATOM     11  O   UNL     1      53.120   8.481   8.985 -0.07 +0.38    -0.480    45.513
ATOM     12  H   UNL     1      52.624   9.093   9.568 -0.30 -0.41    +0.296    45.513
ATOM     13  C   UNL     1      50.934   6.664  10.288 -0.03 -0.04    +0.101    45.513
ATOM     14  N   UNL     1      50.668   8.119  10.472 -0.05 +0.16    -0.281    45.513
ATOM     15  C   UNL     1      49.555   8.635   9.627 -0.08 -0.11    +0.208    45.513
ATOM     16  C   UNL     1      49.949   9.752   8.659 -0.09 -0.25    +0.317    45.513
ATOM     17  O   UNL     1      49.202  10.665   8.336 -0.18 +0.15    -0.251    45.513
ATOM     18  O   UNL     1      51.211   9.658   8.189 -0.03 +0.54    -0.480    45.513
ATOM     19  H   UNL     1      51.534   8.751   8.000 +0.06 -0.22    +0.296    45.513
ATOM     20  C   UNL     1      50.443   8.398  11.913 -0.11 -0.08    +0.208    45.513
ATOM     21  C   UNL     1      51.616   9.178  12.495 -0.10 -0.11    +0.317    45.513
ATOM     22  O   UNL     1      51.597   9.720  13.590 -0.35 -0.10    -0.251    45.513
ATOM     23  O   UNL     1      52.633   9.337  11.615 -0.00 +0.44    -0.480    45.513
ATOM     24  H   UNL     1      52.288   9.491  10.709 -0.35 -0.51    +0.296    45.513
TER
ENDMDL
MODEL        2
USER    Run = 2
USER    Cluster Rank = 7
USER    Number of conformations in this cluster = 1
USER  
USER    RMSD from reference structure       = 46.826 A
USER  
USER    Estimated Free Energy of Binding    =   +2.28 kcal/mol  [=(1)+(2)+(3)-(4)]
USER    
USER    (1) Final Intermolecular Energy     =   -2.19 kcal/mol
USER        vdW + Hbond + desolv Energy     =   -2.07 kcal/mol
USER        Electrostatic Energy            =   -0.12 kcal/mol
USER    (2) Final Total Internal Energy     =   -6.28 kcal/mol
USER    (3) Torsional Free Energy           =   +4.47 kcal/mol
USER    (4) Unbound System's Energy  [=(2)] =   -6.28 kcal/mol
USER    
USER    
USER  
USER    DPF = EDTA.dpf
USER    NEWDPF move	EDTA.pdbqt
USER    NEWDPF about	5.994792 0.021125 -2.239083
USER    NEWDPF tran0	54.218401 5.697600 9.053534
USER    NEWDPF axisangle0	-0.135621 0.671418 0.728564 -129.688724
USER    NEWDPF quaternion0	-0.122758 0.607738 0.659464 -0.425079
USER    NEWDPF dihe0	104.00 -26.78 -7.43 -48.41 130.55 178.57 -107.37 68.49 -108.30 135.52 -180.00 -32.74 -167.11 124.83 79.23 
USER  
USER                              x       y       z    vdW   Elec        q     RMS 
ATOM      1  C   UNL     1      54.677   5.469   9.567 -0.05 -0.04    +0.101    46.826
ATOM      2  N   UNL     1      55.691   6.287  10.293 -0.07 +0.12    -0.281    46.826
ATOM      3  C   UNL     1      55.332   7.720  10.077 -0.21 -0.09    +0.208    46.826
ATOM      4  C   UNL     1      54.096   8.114  10.870 -0.16 -0.16    +0.317    46.826
ATOM      5  O   UNL     1      53.447   7.329  11.548 -0.14 +0.09    -0.251    46.826
ATOM      6  O   UNL     1      53.846   9.441  10.832 -0.11 +0.49    -0.480    46.826
ATOM      7  H   UNL     1      53.128   9.622  10.183 -0.38 -0.57    +0.296    46.826
ATOM      8  C   UNL     1      55.795   5.925  11.735 -0.14 -0.09    +0.208    46.826
ATOM      9  C   UNL     1      56.566   4.641  12.016 -0.08 -0.13    +0.317    46.826
ATOM     10  O   UNL     1      56.031   3.544  12.111 -0.03 +0.08    -0.251    46.826
ATOM     11  O   UNL     1      57.894   4.814  12.205 -0.05 +0.24    -0.480    46.826
ATOM     12  H   UNL     1      58.312   5.574  11.749 -0.51 -0.25    +0.296    46.826
ATOM     13  C   UNL     1      53.716   6.196   8.586 -0.07 -0.04    +0.101    46.826
ATOM     14  N   UNL     1      52.346   6.429   9.125 -0.01 +0.11    -0.281    46.826
ATOM     15  C   UNL     1      51.426   7.087   8.156 -0.06 -0.09    +0.208    46.826
ATOM     16  C   UNL     1      50.932   8.472   8.578 -0.08 -0.22    +0.317    46.826
ATOM     17  O   UNL     1      50.081   9.104   7.969 -0.10 +0.15    -0.251    46.826
ATOM     18  O   UNL     1      51.509   8.946   9.703 -0.01 +0.54    -0.480    46.826
ATOM     19  H   UNL     1      52.012   8.295  10.237 +0.07 -0.23    +0.296    46.826
ATOM     20  C   UNL     1      51.792   5.147   9.629 -0.01 -0.06    +0.208    46.826
ATOM     21  C   UNL     1      50.944   5.385  10.872 +0.01 -0.09    +0.317    46.826
ATOM     22  O   UNL     1      50.395   4.494  11.504 -0.00 +0.06    -0.251    46.826
ATOM     23  O   UNL     1      50.734   6.699  11.125 +0.02 +0.16    -0.480    46.826
ATOM     24  H   UNL     1      51.567   7.209  11.028 +0.08 -0.12    +0.296    46.826
TER
ENDMDL
MODEL        1
USER    Run = 1
USER    Cluster Rank = 8
USER    Number of conformations in this cluster = 1
USER  
USER    RMSD from reference structure       = 44.785 A
USER  
USER    Estimated Free Energy of Binding    =   +2.81 kcal/mol  [=(1)+(2)+(3)-(4)]
USER    
USER    (1) Final Intermolecular Energy     =   -1.67 kcal/mol
USER        vdW + Hbond + desolv Energy     =   -0.97 kcal/mol
USER        Electrostatic Energy            =   -0.70 kcal/mol
USER    (2) Final Total Internal Energy     =   -8.99 kcal/mol
USER    (3) Torsional Free Energy           =   +4.47 kcal/mol
USER    (4) Unbound System's Energy  [=(2)] =   -8.99 kcal/mol
USER    
USER    
USER  
USER    DPF = EDTA.dpf
USER    NEWDPF move	EDTA.pdbqt
USER    NEWDPF about	5.994792 0.021125 -2.239083
USER    NEWDPF tran0	51.286540 6.593016 11.613075
USER    NEWDPF axisangle0	-0.138030 0.509530 0.849310 117.286257
USER    NEWDPF quaternion0	-0.117870 0.435110 0.725262 0.520367
USER    NEWDPF dihe0	20.60 -24.94 49.72 -4.91 -19.55 140.51 -114.54 40.24 59.16 163.17 178.38 -12.62 -55.89 56.80 157.15 
USER  
USER                              x       y       z    vdW   Elec        q     RMS 
ATOM      1  C   UNL     1      51.558   7.249  11.461 -0.08 -0.04    +0.101    44.785
ATOM      2  N   UNL     1      51.013   8.567  11.897 -0.09 +0.13    -0.281    44.785
ATOM      3  C   UNL     1      52.136   9.313  12.538 -0.02 -0.06    +0.208    44.785
ATOM      4  C   UNL     1      51.828   9.653  13.988 -0.28 +0.21    +0.317    44.785
ATOM      5  O   UNL     1      52.315  10.609  14.578 -0.52 -0.71    -0.251    44.785
ATOM      6  O   UNL     1      50.885   8.852  14.528 -0.06 -0.03    -0.480    44.785
ATOM      7  H   UNL     1      50.788   8.041  13.979 +0.11 -0.03    +0.296    44.785
ATOM      8  C   UNL     1      50.376   9.322  10.781 -0.13 -0.17    +0.208    44.785
ATOM      9  C   UNL     1      48.853   9.328  10.802 -0.11 -0.13    +0.317    44.785
ATOM     10  O   UNL     1      48.167   9.053   9.825 -0.06 +0.09    -0.251    44.785
ATOM     11  O   UNL     1      48.309   9.710  11.978 -0.00 +0.10    -0.480    44.785
ATOM     12  H   UNL     1      48.844   9.559  12.786 +0.12 -0.05    +0.296    44.785
ATOM     13  C   UNL     1      50.880   5.960  12.005 -0.01 -0.03    +0.101    44.785
ATOM     14  N   UNL     1      50.158   6.143  13.296 +0.01 +0.06    -0.281    44.785
ATOM     15  C   UNL     1      48.682   5.969  13.186 -0.00 -0.04    +0.208    44.785
ATOM     16  C   UNL     1      47.861   7.210  13.539 +0.00 -0.05    +0.317    44.785
ATOM     17  O   UNL     1      46.639   7.250  13.499 -0.01 +0.04    -0.251    44.785
ATOM     18  O   UNL     1      48.601   8.274  13.916 -0.00 +0.06    -0.480    44.785
ATOM     19  H   UNL     1      49.401   8.456  13.378 +0.10 -0.05    +0.296    44.785
ATOM     20  C   UNL     1      50.745   5.241  14.319 -0.00 -0.04    +0.208    44.785
ATOM     21  C   UNL     1      50.313   5.667  15.717 +0.00 -0.06    +0.317    44.785
ATOM     22  O   UNL     1      50.235   4.905  16.669 -0.01 +0.05    -0.251    44.785
ATOM     23  O   UNL     1      49.878   6.949  15.767 +0.02 +0.08    -0.480    44.785
ATOM     24  H   UNL     1      49.945   7.374  14.885 +0.07 -0.04    +0.296    44.785
TER
ENDMDL
MODEL        9
USER    Run = 9
USER    Cluster Rank = 9
USER    Number of conformations in this cluster = 1
USER  
USER    RMSD from reference structure       = 44.957 A
USER  
USER    Estimated Free Energy of Binding    =   +3.40 kcal/mol  [=(1)+(2)+(3)-(4)]
USER    
USER    (1) Final Intermolecular Energy     =   -1.07 kcal/mol
USER        vdW + Hbond + desolv Energy     =   -0.86 kcal/mol
USER        Electrostatic Energy            =   -0.21 kcal/mol
USER    (2) Final Total Internal Energy     =   -9.38 kcal/mol
USER    (3) Torsional Free Energy           =   +4.47 kcal/mol
USER    (4) Unbound System's Energy  [=(2)] =   -9.38 kcal/mol
USER    
USER    
USER  
USER    DPF = EDTA.dpf
USER    NEWDPF move	EDTA.pdbqt
USER    NEWDPF about	5.994792 0.021125 -2.239083
USER    NEWDPF tran0	53.244920 8.430571 9.377997
USER    NEWDPF axisangle0	-0.603579 0.790684 -0.102528 63.480874
USER    NEWDPF quaternion0	-0.317526 0.415956 -0.053937 0.850440
USER    NEWDPF dihe0	-16.39 -56.31 58.35 -6.47 3.56 60.12 -129.83 67.90 53.34 -139.55 -177.07 -34.54 -82.29 19.79 -162.67 
USER  
USER                              x       y       z    vdW   Elec        q     RMS 
ATOM      1  C   UNL     1      52.724   8.520   8.881 -0.12 -0.08    +0.101    44.957
ATOM      2  N   UNL     1      51.415   7.806   8.816 -0.06 +0.16    -0.281    44.957
ATOM      3  C   UNL     1      50.382   8.738   9.358 -0.10 -0.15    +0.208    44.957
ATOM      4  C   UNL     1      49.589   8.101  10.488 -0.03 -0.13    +0.317    44.957
ATOM      5  O   UNL     1      48.366   8.097  10.539 -0.03 +0.08    -0.251    44.957
ATOM      6  O   UNL     1      50.369   7.450  11.378 +0.02 +0.17    -0.480    44.957
ATOM      7  H   UNL     1      51.242   7.253  10.969 +0.07 -0.12    +0.296    44.957
ATOM      8  C   UNL     1      51.096   7.318   7.445 -0.07 -0.09    +0.208    44.957
ATOM      9  C   UNL     1      50.025   6.235   7.386 -0.01 -0.10    +0.317    44.957
ATOM     10  O   UNL     1      49.260   6.100   6.441 -0.01 +0.07    -0.251    44.957
ATOM     11  O   UNL     1      49.951   5.458   8.490 +0.00 +0.14    -0.480    44.957
ATOM     12  H   UNL     1      50.762   4.971   8.746 +0.01 -0.09    +0.296    44.957
ATOM     13  C   UNL     1      53.642   8.255  10.107 -0.24 -0.07    +0.101    44.957
ATOM     14  N   UNL     1      53.283   7.042  10.895 -0.05 +0.11    -0.281    44.957
ATOM     15  C   UNL     1      53.710   5.766  10.254 -0.03 -0.07    +0.208    44.957
ATOM     16  C   UNL     1      52.563   4.866   9.792 +0.00 -0.10    +0.317    44.957
ATOM     17  O   UNL     1      52.705   3.931   9.015 -0.00 +0.07    -0.251    44.957
ATOM     18  O   UNL     1      51.363   5.180  10.325 +0.01 +0.14    -0.480    44.957
ATOM     19  H   UNL     1      51.085   6.116  10.239 +0.03 -0.10    +0.296    44.957
ATOM     20  C   UNL     1      53.820   7.175  12.272 -0.12 -0.06    +0.208    44.957
ATOM     21  C   UNL     1      52.838   6.598  13.285 -0.07 -0.06    +0.317    44.957
ATOM     22  O   UNL     1      53.026   6.597  14.493 -0.13 +0.02    -0.251    44.957
ATOM     23  O   UNL     1      51.801   5.950  12.704 +0.01 +0.12    -0.480    44.957
ATOM     24  H   UNL     1      51.853   6.014  11.726 +0.05 -0.09    +0.296    44.957
TER
ENDMDL


AVSFLD: # AVS field file
AVSFLD: #
AVSFLD: # Created by AutoDock
AVSFLD: #
AVSFLD: ndim=2           # number of dimensions in the field
AVSFLD: nspace=1         # number of physical coordinates
AVSFLD: veclen=7         # vector size
AVSFLD: dim1=24          # atoms
AVSFLD: dim2=9           # conformations
AVSFLD: data=Real       # data type (byte,integer,Real,double)
AVSFLD: field=uniform    # field coordinate layout
AVSFLD: label= x y z vdW Elec q RMS
AVSFLD: variable 1 file = EDTA.dlg.pdb filetype = ascii offset = 5 stride = 12
AVSFLD: variable 2 file = EDTA.dlg.pdb filetype = ascii offset = 6 stride = 12
AVSFLD: variable 3 file = EDTA.dlg.pdb filetype = ascii offset = 7 stride = 12
AVSFLD: variable 4 file = EDTA.dlg.pdb filetype = ascii offset = 8 stride = 12
AVSFLD: variable 5 file = EDTA.dlg.pdb filetype = ascii offset = 9 stride = 12
AVSFLD: variable 6 file = EDTA.dlg.pdb filetype = ascii offset = 10 stride = 12
AVSFLD: variable 7 file = EDTA.dlg.pdb filetype = ascii offset = 11 stride = 12
AVSFLD: # end of file

>>> Closing the docking parameter file (DPF)...
This docking finished at:			4:18 12" p.m., 09/11/2026


________________________________________________________________________________

autodock4: Successful Completion on "VP"

Real= 1m 55.32s,  CPU= 1m 55.26s,  System= 0.04s
________________________________________________________________________________

