REMARK SMILES NCC(=O)O
REMARK SMILES IDX 3 1 4 2 2 3 1 4 5 7
REMARK H PARENT 1 5 1 6 5 8
ROOT
ATOM      1  C   UNL     1       2.990   0.529   1.341  1.00  0.00    +0.317 C 
ATOM      2  O   UNL     1       4.051   1.105   1.520  1.00  0.00    -0.251 OA
ENDROOT
BRANCH   1   3
ATOM      3  C   UNL     1       2.501  -0.012  -0.000  1.00  0.00    +0.201 C 
BRANCH   3   4
ATOM      4  N   UNL     1       1.025  -0.172   0.051  1.00  0.00    -0.321 NA
ATOM      5  H   UNL     1       0.727  -0.565  -0.847  1.00  0.00    +0.119 HD
ATOM      6  H   UNL     1       0.611   0.767   0.056  1.00  0.00    +0.119 HD
ENDBRANCH   3   4
ENDBRANCH   1   3
BRANCH   1   7
ATOM      7  O   UNL     1       2.103   0.257   2.334  1.00  0.00    -0.480 OA
ATOM      8  H   UNL     1       1.339  -0.200   1.902  1.00  0.00    +0.296 HD
ENDBRANCH   1   7
TORSDOF 3
