REMARK SMILES O=C(O)CC(=O)O
REMARK SMILES IDX 4 1 2 2 1 3 3 4 5 6 6 7 7 8
REMARK H PARENT 3 5 7 9
ROOT
ATOM      1  C   UNL     1       3.340   0.293   1.058  1.00  0.00    +0.244 C 
ENDROOT
BRANCH   1   2
ATOM      2  C   UNL     1       2.541  -0.084  -0.158  1.00  0.00    +0.314 C 
ATOM      3  O   UNL     1       1.315  -0.076  -0.133  1.00  0.00    -0.252 OA
BRANCH   2   4
ATOM      4  O   UNL     1       3.212  -0.428  -1.273  1.00  0.00    -0.481 OA
ATOM      5  H   UNL     1       4.198  -0.406  -1.200  1.00  0.00    +0.296 HD
ENDBRANCH   2   4
ENDBRANCH   1   2
BRANCH   1   6
ATOM      6  C   UNL     1       4.826   0.253   0.928  1.00  0.00    +0.314 C 
ATOM      7  O   UNL     1       5.413  -0.065  -0.098  1.00  0.00    -0.252 OA
BRANCH   6   8
ATOM      8  O   UNL     1       5.480   0.601   2.057  1.00  0.00    -0.481 OA
ATOM      9  H   UNL     1       4.908   0.836   2.814  1.00  0.00    +0.296 HD
ENDBRANCH   6   8
ENDBRANCH   1   6
TORSDOF 4
