          AutoDock 4.2 Release 4.2.6   
         (C) 1989-2012 The Scripps Research Institute
        AutoDock comes with ABSOLUTELY NO WARRANTY.
        AutoDock is free software, and you are welcome
        to redistribute it under certain conditions;
        for details type 'autodock4 -C'

                     main.cc  $Revision: 1.213 $

                   Compiled on Dec 11 2024 at 15:52:35


This file was created at:			4:15 27" p.m., 09/11/2026
                   on host:		"VP"
Current Working Directory = "/home/vishishtaapandit28/docking-pipeline-project/results/3BH4/ad4_grids"

      ________________________________________________________________

                   SETTING UP DEFAULT PARAMETER LIBRARY
      ________________________________________________________________


Random number generator was seeded with values 61998, 1789123527.
Docking parameter file (DPF) used for this docking:		malonic_acid.dpf
DPF> autodock_parameter_version 4.2

	Autodock parameter version 4.2.
DPF> outlev 1

Output Level = 1  ADT-COMPATIBLE OUTPUT DURING DOCKING.
DPF> intelec

Electrostatic energies will be calculated for all non-bonds between moving atoms.
DPF> seed pid time

Random number generator was seeded with values 61998, 1789123527.
DPF> ligand_types C HD OA

DPF> fld receptor.maps.fld

Opening Grid Map Dimensions file:		receptor.maps.fld
Grid Point Spacing =				0.375 Angstroms

Even Number of User-specified Grid Points =	54 x-points
						54 y-points
						54 z-points

Coordinates of Central Grid Point of Maps =	(53.838, 11.958, 13.914)
Macromolecule file used to create Grid Maps =	receptor.pdbqt
Grid Parameter file used to create Grid Maps =	receptor.gpf
Minimum coordinates in grid = (43.713, 1.833, 3.789)
Maximum coordinates in grid = (63.963, 22.083, 24.039)

DPF> map receptor.C.map

DPF> map receptor.HD.map

DPF> map receptor.OA.map

DPF> elecmap receptor.e.map

DPF> desolvmap receptor.d.map

DPF> move malonic_acid.pdbqt

1,4-interactions will be _ignored_ in the non-bonded internal energy calculation.

Ligand PDBQT file = "malonic_acid.pdbqt"

INPUT LIGAND PDBQT FILE:
________________________

INPUT-LIGAND-PDBQT: REMARK SMILES O=C(O)CC(=O)O
INPUT-LIGAND-PDBQT: REMARK SMILES IDX 4 1 2 2 1 3 3 4 5 6 6 7 7 8
INPUT-LIGAND-PDBQT: REMARK H PARENT 3 5 7 9
INPUT-LIGAND-PDBQT: ROOT
INPUT-LIGAND-PDBQT: ATOM      1  C   UNL     1       3.340   0.293   1.058  1.00  0.00    +0.244 C 
INPUT-LIGAND-PDBQT: ENDROOT
INPUT-LIGAND-PDBQT: BRANCH   1   2
INPUT-LIGAND-PDBQT: ATOM      2  C   UNL     1       2.541  -0.084  -0.158  1.00  0.00    +0.314 C 
INPUT-LIGAND-PDBQT: ATOM      3  O   UNL     1       1.315  -0.076  -0.133  1.00  0.00    -0.252 OA
INPUT-LIGAND-PDBQT: BRANCH   2   4
INPUT-LIGAND-PDBQT: ATOM      4  O   UNL     1       3.212  -0.428  -1.273  1.00  0.00    -0.481 OA
INPUT-LIGAND-PDBQT: ATOM      5  H   UNL     1       4.198  -0.406  -1.200  1.00  0.00    +0.296 HD
INPUT-LIGAND-PDBQT: ENDBRANCH   2   4
INPUT-LIGAND-PDBQT: ENDBRANCH   1   2
INPUT-LIGAND-PDBQT: BRANCH   1   6
INPUT-LIGAND-PDBQT: ATOM      6  C   UNL     1       4.826   0.253   0.928  1.00  0.00    +0.314 C 
INPUT-LIGAND-PDBQT: ATOM      7  O   UNL     1       5.413  -0.065  -0.098  1.00  0.00    -0.252 OA
INPUT-LIGAND-PDBQT: BRANCH   6   8
INPUT-LIGAND-PDBQT: ATOM      8  O   UNL     1       5.480   0.601   2.057  1.00  0.00    -0.481 OA
INPUT-LIGAND-PDBQT: ATOM      9  H   UNL     1       4.908   0.836   2.814  1.00  0.00    +0.296 HD
INPUT-LIGAND-PDBQT: ENDBRANCH   6   8
INPUT-LIGAND-PDBQT: ENDBRANCH   1   6
INPUT-LIGAND-PDBQT: TORSDOF 4
________________________________________________________________________________

Total charge on ligand                               =	-0.002 e
REMARK SMILES O=C(O)CC(=O)O
REMARK SMILES IDX 4 1 2 2 1 3 3 4 5 6 6 7 7 8
REMARK H PARENT 3 5 7 9


Number of Rotatable Bonds in Small Molecule =	4 torsions
Number of atoms in ligand:  9

Number of non-hydrogen atoms in ligand:  7

Number of vibrational degrees of freedom of ligand:  21


Number of torsional degrees of freedom = 4
Estimated loss of torsional free energy upon binding = +1.1932 kcal/mol


DPF> about 3.9147777777777772 0.10266666666666664 0.4438888888888889

Small molecule center of rotation =	(+3.915, +0.103, +0.444)

DPF> tran0 random

Initial translation =			(55.980, 18.350, 21.724) Angstroms
DPF> quat0 random

Each run will begin with a new, random initial orientation.
Initial quaternion,  (x,y,z,w) =	( -0.110, 0.407, 0.785, 0.453 ),
DPF> dihe0 random

DPF> tstep 2.0

Initial simanneal cycle, maximum translation step = +/- 2.0 Angstroms
DPF> qstep 50.0

Initial simanneal cycle, maximum quaternion angle step = +/- 50.0 deg
DPF> dstep 50.0

Initial simanneal cycle, maximum torsion angle step = +/- 50.0 deg
DPF> torsdof 4

Number of torsional degrees of freedom = 4
Free energy coefficient for torsional degrees of freedom = 0.2983, the factory default value.

Estimated loss of torsional free energy upon binding = +1.1932 kcal/mol

DPF> rmstol 2.0

Maximum RMS tolerance for conformational cluster analysis = 2.00 Angstroms
DPF> extnrg 1000.0

External grid energy (beyond grid map walls) = 1000.00

DPF> e0max 0.0 10000

Using user-specified maximum number of retries for simanneal initialization, 10000 retries.
If the simanneal initial energy is greater than e0max, 0.000,
then a new, random initial state will be created.

DPF> ga_pop_size 150

A population of 150 individuals will be used
DPF> ga_num_evals 2500000

There will be at most 2500000 function evaluations used.
DPF> ga_num_generations 27000

The GA will run for at most 27000 generations.
DPF> ga_elitism 1

The 1 best will be preserved each GA generation.
DPF> ga_mutation_rate 0.02

The mutation rate is 0.020000.
DPF> ga_crossover_rate 0.8

The crossover rate is 0.800000.
DPF> ga_window_size 10

The GA's selection window is 10 generations.
DPF> ga_cauchy_alpha 0.0

The alpha parameter (for the Cauchy distribution) is being set to 0.000000.
DPF> ga_cauchy_beta 1.0

The beta parameter (for the Cauchy distribution) is being set to 1.000000.
DPF> set_ga

DPF> sw_max_its 300

Solis & Wets algorithms will perform at most 300 iterations.
DPF> sw_max_succ 4

Solis & Wets algorithms expand rho every 4 in a row successes.
DPF> sw_max_fail 4

Solis & Wets algorithms contract rho every 4 in a row failures.
DPF> sw_rho 1.0

rho is set to 1.000000.
DPF> sw_lb_rho 0.01

rho will never get smaller than 0.010000.
DPF> ls_search_freq 0.06

Local search will be performed with frequency 0.060000.
DPF> set_psw1

Creating a new Local Search object using the pseudo-Solis-Wets algorithm (pSW1) with the current settings.

DPF> unbound_model bound

DPF> ga_run 10

centering ligand on specified point: 3.915 0.103 0.444
Furthest true ligand atom from "about" center is 2.672 Angstroms (maxrad).
Number of requested GA dockings = 10 runs
Unbound model to be used is 'same as bound' [AutoDock 4.2 default].

	BEGINNING GENETIC ALGORITHM DOCKING 1 of 10
Run: 1 Seed: 20778560 759727718 [ Run 1 of 10 GA/GALS ]
Beginning LAMARCKIAN GENETIC ALGORITHM (LGA), with a maximum of 2500000 energy evaluations.

Final-Value: -4.413


	FINAL GENETIC ALGORITHM DOCKED STATE
	_______________________________________________


Detailed state:  trans 55.150 11.003 22.222 quatxyzw -0.463264 0.490738 0.724145 -0.142043 center 3.915 0.103 0.444 ntor 4 84.4489 -59.8536 -37.1284 -163.2874
State:	 55.150  11.003  22.222  -0.468  0.496  0.732 -163.668     84.45  -59.85  -37.13 -163.29

DOCKED: MODEL        1
DOCKED: USER    Run = 1
DOCKED: USER    DPF = malonic_acid.dpf
DOCKED: USER  
DOCKED: USER    Estimated Free Energy of Binding    =   -2.56 kcal/mol  [=(1)+(2)+(3)-(4)]
DOCKED: USER    Estimated Inhibition Constant, Ki   =   13.33 mM (millimolar)  [Temperature = 298.15 K]
DOCKED: USER    
DOCKED: USER    (1) Final Intermolecular Energy     =   -3.75 kcal/mol
DOCKED: USER        vdW + Hbond + desolv Energy     =   -3.52 kcal/mol
DOCKED: USER        Electrostatic Energy            =   -0.23 kcal/mol
DOCKED: USER    (2) Final Total Internal Energy     =   -0.66 kcal/mol
DOCKED: USER    (3) Torsional Free Energy           =   +1.19 kcal/mol
DOCKED: USER    (4) Unbound System's Energy  [=(2)] =   -0.66 kcal/mol
DOCKED: USER    
DOCKED: USER    
DOCKED: USER    NEWDPF move malonic_acid.pdbqt
DOCKED: USER    NEWDPF about 3.914778 0.102667 0.443889
DOCKED: USER    NEWDPF tran0 55.150253 11.003009 22.222332
DOCKED: USER    NEWDPF quaternion0 -0.463264 0.490738 0.724145 -0.142043
DOCKED: USER    NEWDPF axisangle0 -0.468010 0.495765 0.731563 -163.667842
DOCKED: USER    NEWDPF quat0 -0.468010 0.495765 0.731563 -163.667842
DOCKED: USER    NEWDPF dihe0 84.45 -59.85 -37.13 -163.29 
DOCKED: USER  keepresnum = 1 
DOCKED: USER  
DOCKED: REMARK SMILES O=C(O)CC(=O)O
DOCKED: REMARK SMILES IDX 4 1 2 2 1 3 3 4 5 6 6 7 7 8
DOCKED: REMARK H PARENT 3 5 7 9
DOCKED: USER                              x       y       z     vdW  Elec       q    Type
DOCKED: USER                           _______ _______ _______ _____ _____    ______ ____
DOCKED: ROOT
DOCKED: ATOM      1  C   UNL     1      55.003  11.572  22.853 -0.17 -0.08    +0.244 C 
DOCKED: ENDROOT
DOCKED: BRANCH   1   2
DOCKED: ATOM      2  C   UNL     1      56.322  10.927  23.174 -0.13 -0.09    +0.314 C 
DOCKED: ATOM      3  O   UNL     1      57.238  11.578  23.664 -0.81 +0.05    -0.252 OA
DOCKED: BRANCH   2   4
DOCKED: ATOM      4  O   UNL     1      56.465   9.615  22.908 -0.24 +0.17    -0.481 OA
DOCKED: ATOM      5  H   UNL     1      56.725   9.395  21.980 -0.33 -0.19    +0.296 HD
DOCKED: ENDBRANCH   2   4
DOCKED: ENDBRANCH   1   2
DOCKED: BRANCH   1   6
DOCKED: ATOM      6  C   UNL     1      54.310  11.112  21.614 -0.23 -0.07    +0.314 C 
DOCKED: ATOM      7  O   UNL     1      53.403  11.728  21.070 -0.92 -0.00    -0.252 OA
DOCKED: BRANCH   6   8
DOCKED: ATOM      8  O   UNL     1      54.775   9.938  21.136 -0.23 +0.18    -0.481 OA
DOCKED: ATOM      9  H   UNL     1      55.722   9.932  20.895 -0.44 -0.21    +0.296 HD
DOCKED: ENDBRANCH   6   8
DOCKED: ENDBRANCH   1   6
DOCKED: TORSDOF 4
DOCKED: TER
DOCKED: ENDMDL
________________________________________________________________________________


	BEGINNING GENETIC ALGORITHM DOCKING 2 of 10
Run: 2 Seed: 1300936786 1751627082 [ Run 2 of 10 GA/GALS ]
Beginning LAMARCKIAN GENETIC ALGORITHM (LGA), with a maximum of 2500000 energy evaluations.

Final-Value: -4.743


	FINAL GENETIC ALGORITHM DOCKED STATE
	_______________________________________________


Detailed state:  trans 55.018 11.209 22.133 quatxyzw -0.438064 0.334936 0.813800 -0.183431 center 3.915 0.103 0.444 ntor 4 60.0232 -20.2642 -56.5513 -175.2620
State:	 55.018  11.209  22.133  -0.446  0.341  0.828 -158.861     60.02  -20.26  -56.55 -175.26

DOCKED: MODEL        2
DOCKED: USER    Run = 2
DOCKED: USER    DPF = malonic_acid.dpf
DOCKED: USER  
DOCKED: USER    Estimated Free Energy of Binding    =   -2.74 kcal/mol  [=(1)+(2)+(3)-(4)]
DOCKED: USER    Estimated Inhibition Constant, Ki   =    9.84 mM (millimolar)  [Temperature = 298.15 K]
DOCKED: USER    
DOCKED: USER    (1) Final Intermolecular Energy     =   -3.93 kcal/mol
DOCKED: USER        vdW + Hbond + desolv Energy     =   -3.71 kcal/mol
DOCKED: USER        Electrostatic Energy            =   -0.22 kcal/mol
DOCKED: USER    (2) Final Total Internal Energy     =   -0.81 kcal/mol
DOCKED: USER    (3) Torsional Free Energy           =   +1.19 kcal/mol
DOCKED: USER    (4) Unbound System's Energy  [=(2)] =   -0.81 kcal/mol
DOCKED: USER    
DOCKED: USER    
DOCKED: USER    NEWDPF move malonic_acid.pdbqt
DOCKED: USER    NEWDPF about 3.914778 0.102667 0.443889
DOCKED: USER    NEWDPF tran0 55.017749 11.209327 22.133105
DOCKED: USER    NEWDPF quaternion0 -0.438064 0.334936 0.813800 -0.183431
DOCKED: USER    NEWDPF axisangle0 -0.445626 0.340717 0.827847 -158.860613
DOCKED: USER    NEWDPF quat0 -0.445626 0.340717 0.827847 -158.860613
DOCKED: USER    NEWDPF dihe0 60.02 -20.26 -56.55 -175.26 
DOCKED: USER  keepresnum = 1 
DOCKED: USER  
DOCKED: REMARK SMILES O=C(O)CC(=O)O
DOCKED: REMARK SMILES IDX 4 1 2 2 1 3 3 4 5 6 6 7 7 8
DOCKED: REMARK H PARENT 3 5 7 9
DOCKED: USER                              x       y       z     vdW  Elec       q    Type
DOCKED: USER                           _______ _______ _______ _____ _____    ______ ____
DOCKED: ROOT
DOCKED: ATOM      1  C   UNL     1      54.858  11.505  22.927 -0.19 -0.08    +0.244 C 
DOCKED: ENDROOT
DOCKED: BRANCH   1   2
DOCKED: ATOM      2  C   UNL     1      56.238  10.910  22.974 -0.13 -0.09    +0.314 C 
DOCKED: ATOM      3  O   UNL     1      57.200  11.579  23.334 -0.82 +0.04    -0.252 OA
DOCKED: BRANCH   2   4
DOCKED: ATOM      4  O   UNL     1      56.382   9.622  22.610 -0.20 +0.19    -0.481 OA
DOCKED: ATOM      5  H   UNL     1      56.111   9.408  21.683 -0.38 -0.19    +0.296 HD
DOCKED: ENDBRANCH   2   4
DOCKED: ENDBRANCH   1   2
DOCKED: BRANCH   1   6
DOCKED: ATOM      6  C   UNL     1      54.143  11.449  21.619 -0.20 -0.06    +0.314 C 
DOCKED: ATOM      7  O   UNL     1      53.053  11.967  21.415 -0.86 +0.04    -0.252 OA
DOCKED: BRANCH   6   8
DOCKED: ATOM      8  O   UNL     1      54.810  10.766  20.664 -0.54 +0.09    -0.481 OA
DOCKED: ATOM      9  H   UNL     1      55.770  10.665  20.817 -0.39 -0.16    +0.296 HD
DOCKED: ENDBRANCH   6   8
DOCKED: ENDBRANCH   1   6
DOCKED: TORSDOF 4
DOCKED: TER
DOCKED: ENDMDL
________________________________________________________________________________


	BEGINNING GENETIC ALGORITHM DOCKING 3 of 10
Run: 3 Seed: 1901985955 2057509997 [ Run 3 of 10 GA/GALS ]
Beginning LAMARCKIAN GENETIC ALGORITHM (LGA), with a maximum of 2500000 energy evaluations.

Final-Value: -4.789


	FINAL GENETIC ALGORITHM DOCKED STATE
	_______________________________________________


Detailed state:  trans 55.013 11.141 22.105 quatxyzw 0.444782 -0.302987 -0.825641 0.169366 center 3.915 0.103 0.444 ntor 4 66.1977 -30.0269 -58.9929 -165.5645
State:	 55.013  11.141  22.105   0.451 -0.307 -0.838 160.498     66.20  -30.03  -58.99 -165.56

DOCKED: MODEL        3
DOCKED: USER    Run = 3
DOCKED: USER    DPF = malonic_acid.dpf
DOCKED: USER  
DOCKED: USER    Estimated Free Energy of Binding    =   -2.80 kcal/mol  [=(1)+(2)+(3)-(4)]
DOCKED: USER    Estimated Inhibition Constant, Ki   =    8.85 mM (millimolar)  [Temperature = 298.15 K]
DOCKED: USER    
DOCKED: USER    (1) Final Intermolecular Energy     =   -3.99 kcal/mol
DOCKED: USER        vdW + Hbond + desolv Energy     =   -3.76 kcal/mol
DOCKED: USER        Electrostatic Energy            =   -0.24 kcal/mol
DOCKED: USER    (2) Final Total Internal Energy     =   -0.79 kcal/mol
DOCKED: USER    (3) Torsional Free Energy           =   +1.19 kcal/mol
DOCKED: USER    (4) Unbound System's Energy  [=(2)] =   -0.79 kcal/mol
DOCKED: USER    
DOCKED: USER    
DOCKED: USER    NEWDPF move malonic_acid.pdbqt
DOCKED: USER    NEWDPF about 3.914778 0.102667 0.443889
DOCKED: USER    NEWDPF tran0 55.012542 11.140884 22.104753
DOCKED: USER    NEWDPF quaternion0 0.444782 -0.302987 -0.825641 0.169366
DOCKED: USER    NEWDPF axisangle0 0.451302 -0.307428 -0.837744 160.498092
DOCKED: USER    NEWDPF quat0 0.451302 -0.307428 -0.837744 160.498092
DOCKED: USER    NEWDPF dihe0 66.20 -30.03 -58.99 -165.56 
DOCKED: USER  keepresnum = 1 
DOCKED: USER  
DOCKED: REMARK SMILES O=C(O)CC(=O)O
DOCKED: REMARK SMILES IDX 4 1 2 2 1 3 3 4 5 6 6 7 7 8
DOCKED: REMARK H PARENT 3 5 7 9
DOCKED: USER                              x       y       z     vdW  Elec       q    Type
DOCKED: USER                           _______ _______ _______ _____ _____    ______ ____
DOCKED: ROOT
DOCKED: ATOM      1  C   UNL     1      54.834  11.390  22.911 -0.19 -0.08    +0.244 C 
DOCKED: ENDROOT
DOCKED: BRANCH   1   2
DOCKED: ATOM      2  C   UNL     1      56.247  10.877  22.936 -0.13 -0.09    +0.314 C 
DOCKED: ATOM      3  O   UNL     1      57.173  11.599  23.288 -0.82 +0.04    -0.252 OA
DOCKED: BRANCH   2   4
DOCKED: ATOM      4  O   UNL     1      56.462   9.602  22.563 -0.20 +0.19    -0.481 OA
DOCKED: ATOM      5  H   UNL     1      56.281   9.400  21.612 -0.38 -0.22    +0.296 HD
DOCKED: ENDBRANCH   2   4
DOCKED: ENDBRANCH   1   2
DOCKED: BRANCH   1   6
DOCKED: ATOM      6  C   UNL     1      54.126  11.351  21.598 -0.22 -0.06    +0.314 C 
DOCKED: ATOM      7  O   UNL     1      53.087  11.956  21.365 -0.86 +0.03    -0.252 OA
DOCKED: BRANCH   6   8
DOCKED: ATOM      8  O   UNL     1      54.735  10.578  20.674 -0.53 +0.11    -0.481 OA
DOCKED: ATOM      9  H   UNL     1      55.708  10.519  20.756 -0.43 -0.17    +0.296 HD
DOCKED: ENDBRANCH   6   8
DOCKED: ENDBRANCH   1   6
DOCKED: TORSDOF 4
DOCKED: TER
DOCKED: ENDMDL
________________________________________________________________________________


	BEGINNING GENETIC ALGORITHM DOCKING 4 of 10
Run: 4 Seed: 1765237798 357980141 [ Run 4 of 10 GA/GALS ]
Beginning LAMARCKIAN GENETIC ALGORITHM (LGA), with a maximum of 2500000 energy evaluations.

Final-Value: -4.202


	FINAL GENETIC ALGORITHM DOCKED STATE
	_______________________________________________


Detailed state:  trans 51.402 9.653 14.028 quatxyzw 0.134372 -0.272657 0.398041 -0.865544 center 3.915 0.103 0.444 ntor 4 -87.1339 -36.4420 29.7653 167.3576
State:	 51.402   9.653  14.028   0.268 -0.544  0.795 -60.110    -87.13  -36.44   29.77  167.36

DOCKED: MODEL        4
DOCKED: USER    Run = 4
DOCKED: USER    DPF = malonic_acid.dpf
DOCKED: USER  
DOCKED: USER    Estimated Free Energy of Binding    =   -2.21 kcal/mol  [=(1)+(2)+(3)-(4)]
DOCKED: USER    Estimated Inhibition Constant, Ki   =   23.98 mM (millimolar)  [Temperature = 298.15 K]
DOCKED: USER    
DOCKED: USER    (1) Final Intermolecular Energy     =   -3.40 kcal/mol
DOCKED: USER        vdW + Hbond + desolv Energy     =   -2.16 kcal/mol
DOCKED: USER        Electrostatic Energy            =   -1.24 kcal/mol
DOCKED: USER    (2) Final Total Internal Energy     =   -0.80 kcal/mol
DOCKED: USER    (3) Torsional Free Energy           =   +1.19 kcal/mol
DOCKED: USER    (4) Unbound System's Energy  [=(2)] =   -0.80 kcal/mol
DOCKED: USER    
DOCKED: USER    
DOCKED: USER    NEWDPF move malonic_acid.pdbqt
DOCKED: USER    NEWDPF about 3.914778 0.102667 0.443889
DOCKED: USER    NEWDPF tran0 51.401919 9.653176 14.027655
DOCKED: USER    NEWDPF quaternion0 0.134372 -0.272657 0.398041 -0.865544
DOCKED: USER    NEWDPF axisangle0 0.268297 -0.544406 0.794757 -60.110259
DOCKED: USER    NEWDPF quat0 0.268297 -0.544406 0.794757 -60.110259
DOCKED: USER    NEWDPF dihe0 -87.13 -36.44 29.77 167.36 
DOCKED: USER  keepresnum = 1 
DOCKED: USER  
DOCKED: REMARK SMILES O=C(O)CC(=O)O
DOCKED: REMARK SMILES IDX 4 1 2 2 1 3 3 4 5 6 6 7 7 8
DOCKED: REMARK H PARENT 3 5 7 9
DOCKED: USER                              x       y       z     vdW  Elec       q    Type
DOCKED: USER                           _______ _______ _______ _____ _____    ______ ____
DOCKED: ROOT
DOCKED: ATOM      1  C   UNL     1      50.725   9.146  14.198 -0.17 +0.02    +0.244 C 
DOCKED: ENDROOT
DOCKED: BRANCH   1   2
DOCKED: ATOM      2  C   UNL     1      51.030   8.957  12.739 -0.13 -0.08    +0.314 C 
DOCKED: ATOM      3  O   UNL     1      50.141   8.679  11.941 -0.11 +0.10    -0.252 OA
DOCKED: BRANCH   2   4
DOCKED: ATOM      4  O   UNL     1      52.305   9.105  12.335 -0.10 +0.18    -0.481 OA
DOCKED: ATOM      5  H   UNL     1      52.576  10.028  12.108 -0.37 -0.30    +0.296 HD
DOCKED: ENDBRANCH   2   4
DOCKED: ENDBRANCH   1   2
DOCKED: BRANCH   1   6
DOCKED: ATOM      6  C   UNL     1      51.598  10.094  14.952 -0.32 +0.26    +0.314 C 
DOCKED: ATOM      7  O   UNL     1      51.340  10.515  16.072 -0.46 -0.10    -0.252 OA
DOCKED: BRANCH   6   8
DOCKED: ATOM      8  O   UNL     1      52.713  10.455  14.283 -0.10 -1.82    -0.481 OA
DOCKED: ATOM      9  H   UNL     1      53.121   9.751  13.741 -0.39 +0.49    +0.296 HD
DOCKED: ENDBRANCH   6   8
DOCKED: ENDBRANCH   1   6
DOCKED: TORSDOF 4
DOCKED: TER
DOCKED: ENDMDL
________________________________________________________________________________


	BEGINNING GENETIC ALGORITHM DOCKING 5 of 10
Run: 5 Seed: 1235840803 324107100 [ Run 5 of 10 GA/GALS ]
Beginning LAMARCKIAN GENETIC ALGORITHM (LGA), with a maximum of 2500000 energy evaluations.

Final-Value: -4.079


	FINAL GENETIC ALGORITHM DOCKED STATE
	_______________________________________________


Detailed state:  trans 51.089 9.387 13.906 quatxyzw -0.616666 -0.100873 0.734871 0.263653 center 3.915 0.103 0.444 ntor 4 -26.4954 -71.7834 -26.7294 -160.6280
State:	 51.089   9.387  13.906  -0.639 -0.105  0.762 149.426    -26.50  -71.78  -26.73 -160.63

DOCKED: MODEL        5
DOCKED: USER    Run = 5
DOCKED: USER    DPF = malonic_acid.dpf
DOCKED: USER  
DOCKED: USER    Estimated Free Energy of Binding    =   -2.06 kcal/mol  [=(1)+(2)+(3)-(4)]
DOCKED: USER    Estimated Inhibition Constant, Ki   =   30.77 mM (millimolar)  [Temperature = 298.15 K]
DOCKED: USER    
DOCKED: USER    (1) Final Intermolecular Energy     =   -3.26 kcal/mol
DOCKED: USER        vdW + Hbond + desolv Energy     =   -1.98 kcal/mol
DOCKED: USER        Electrostatic Energy            =   -1.28 kcal/mol
DOCKED: USER    (2) Final Total Internal Energy     =   -0.82 kcal/mol
DOCKED: USER    (3) Torsional Free Energy           =   +1.19 kcal/mol
DOCKED: USER    (4) Unbound System's Energy  [=(2)] =   -0.82 kcal/mol
DOCKED: USER    
DOCKED: USER    
DOCKED: USER    NEWDPF move malonic_acid.pdbqt
DOCKED: USER    NEWDPF about 3.914778 0.102667 0.443889
DOCKED: USER    NEWDPF tran0 51.089174 9.386737 13.906498
DOCKED: USER    NEWDPF quaternion0 -0.616666 -0.100873 0.734871 0.263653
DOCKED: USER    NEWDPF axisangle0 -0.639285 -0.104573 0.761826 149.426152
DOCKED: USER    NEWDPF quat0 -0.639285 -0.104573 0.761826 149.426152
DOCKED: USER    NEWDPF dihe0 -26.50 -71.78 -26.73 -160.63 
DOCKED: USER  keepresnum = 1 
DOCKED: USER  
DOCKED: REMARK SMILES O=C(O)CC(=O)O
DOCKED: REMARK SMILES IDX 4 1 2 2 1 3 3 4 5 6 6 7 7 8
DOCKED: REMARK H PARENT 3 5 7 9
DOCKED: USER                              x       y       z     vdW  Elec       q    Type
DOCKED: USER                           _______ _______ _______ _____ _____    ______ ____
DOCKED: ROOT
DOCKED: ATOM      1  C   UNL     1      50.720   9.087  14.626 -0.18 +0.02    +0.244 C 
DOCKED: ENDROOT
DOCKED: BRANCH   1   2
DOCKED: ATOM      2  C   UNL     1      51.645  10.190  15.060 -0.31 +0.28    +0.314 C 
DOCKED: ATOM      3  O   UNL     1      51.430  10.825  16.087 -0.46 -0.12    -0.252 OA
DOCKED: BRANCH   2   4
DOCKED: ATOM      4  O   UNL     1      52.715  10.457  14.288 -0.10 -1.83    -0.481 OA
DOCKED: ATOM      5  H   UNL     1      53.049   9.700  13.746 -0.38 +0.44    +0.296 HD
DOCKED: ENDBRANCH   2   4
DOCKED: ENDBRANCH   1   2
DOCKED: BRANCH   1   6
DOCKED: ATOM      6  C   UNL     1      50.662   8.791  13.165 -0.11 -0.05    +0.314 C 
DOCKED: ATOM      7  O   UNL     1      49.743   8.187  12.627 -0.06 +0.06    -0.252 OA
DOCKED: BRANCH   6   8
DOCKED: ATOM      8  O   UNL     1      51.726   9.252  12.474 -0.11 +0.17    -0.481 OA
DOCKED: ATOM      9  H   UNL     1      51.762  10.223  12.362 -0.27 -0.26    +0.296 HD
DOCKED: ENDBRANCH   6   8
DOCKED: ENDBRANCH   1   6
DOCKED: TORSDOF 4
DOCKED: TER
DOCKED: ENDMDL
________________________________________________________________________________


	BEGINNING GENETIC ALGORITHM DOCKING 6 of 10
Run: 6 Seed: 1716219458 1408534404 [ Run 6 of 10 GA/GALS ]
Beginning LAMARCKIAN GENETIC ALGORITHM (LGA), with a maximum of 2500000 energy evaluations.

Final-Value: -4.740


	FINAL GENETIC ALGORITHM DOCKED STATE
	_______________________________________________


Detailed state:  trans 55.059 11.291 22.196 quatxyzw 0.455202 -0.243512 -0.829781 0.212028 center 3.915 0.103 0.444 ntor 4 66.6206 -45.8978 -59.7779 -151.3982
State:	 55.059  11.291  22.196   0.466 -0.249 -0.849 155.518     66.62  -45.90  -59.78 -151.40

DOCKED: MODEL        6
DOCKED: USER    Run = 6
DOCKED: USER    DPF = malonic_acid.dpf
DOCKED: USER  
DOCKED: USER    Estimated Free Energy of Binding    =   -2.78 kcal/mol  [=(1)+(2)+(3)-(4)]
DOCKED: USER    Estimated Inhibition Constant, Ki   =    9.11 mM (millimolar)  [Temperature = 298.15 K]
DOCKED: USER    
DOCKED: USER    (1) Final Intermolecular Energy     =   -3.98 kcal/mol
DOCKED: USER        vdW + Hbond + desolv Energy     =   -3.74 kcal/mol
DOCKED: USER        Electrostatic Energy            =   -0.24 kcal/mol
DOCKED: USER    (2) Final Total Internal Energy     =   -0.76 kcal/mol
DOCKED: USER    (3) Torsional Free Energy           =   +1.19 kcal/mol
DOCKED: USER    (4) Unbound System's Energy  [=(2)] =   -0.76 kcal/mol
DOCKED: USER    
DOCKED: USER    
DOCKED: USER    NEWDPF move malonic_acid.pdbqt
DOCKED: USER    NEWDPF about 3.914778 0.102667 0.443889
DOCKED: USER    NEWDPF tran0 55.059470 11.290807 22.195888
DOCKED: USER    NEWDPF quaternion0 0.455202 -0.243512 -0.829781 0.212028
DOCKED: USER    NEWDPF axisangle0 0.465793 -0.249178 -0.849086 155.517536
DOCKED: USER    NEWDPF quat0 0.465793 -0.249178 -0.849086 155.517536
DOCKED: USER    NEWDPF dihe0 66.62 -45.90 -59.78 -151.40 
DOCKED: USER  keepresnum = 1 
DOCKED: USER  
DOCKED: REMARK SMILES O=C(O)CC(=O)O
DOCKED: REMARK SMILES IDX 4 1 2 2 1 3 3 4 5 6 6 7 7 8
DOCKED: REMARK H PARENT 3 5 7 9
DOCKED: USER                              x       y       z     vdW  Elec       q    Type
DOCKED: USER                           _______ _______ _______ _____ _____    ______ ____
DOCKED: ROOT
DOCKED: ATOM      1  C   UNL     1      54.835  11.432  23.016 -0.19 -0.08    +0.244 C 
DOCKED: ENDROOT
DOCKED: BRANCH   1   2
DOCKED: ATOM      2  C   UNL     1      56.240  10.900  23.055 -0.13 -0.09    +0.314 C 
DOCKED: ATOM      3  O   UNL     1      57.150  11.562  23.542 -0.79 +0.05    -0.252 OA
DOCKED: BRANCH   2   4
DOCKED: ATOM      4  O   UNL     1      56.467   9.677  22.541 -0.21 +0.19    -0.481 OA
DOCKED: ATOM      5  H   UNL     1      56.344   9.597  21.563 -0.40 -0.23    +0.296 HD
DOCKED: ENDBRANCH   2   4
DOCKED: ENDBRANCH   1   2
DOCKED: BRANCH   1   6
DOCKED: ATOM      6  C   UNL     1      54.206  11.580  21.671 -0.19 -0.06    +0.314 C 
DOCKED: ATOM      7  O   UNL     1      53.346  12.410  21.407 -0.88 +0.04    -0.252 OA
DOCKED: BRANCH   6   8
DOCKED: ATOM      8  O   UNL     1      54.671  10.704  20.755 -0.58 +0.09    -0.481 OA
DOCKED: ATOM      9  H   UNL     1      55.644  10.607  20.727 -0.37 -0.15    +0.296 HD
DOCKED: ENDBRANCH   6   8
DOCKED: ENDBRANCH   1   6
DOCKED: TORSDOF 4
DOCKED: TER
DOCKED: ENDMDL
________________________________________________________________________________


	BEGINNING GENETIC ALGORITHM DOCKING 7 of 10
Run: 7 Seed: 687872270 1102558107 [ Run 7 of 10 GA/GALS ]
Beginning LAMARCKIAN GENETIC ALGORITHM (LGA), with a maximum of 2500000 energy evaluations.

Final-Value: -3.949


	FINAL GENETIC ALGORITHM DOCKED STATE
	_______________________________________________


Detailed state:  trans 51.453 9.084 13.760 quatxyzw -0.744025 0.059398 0.598790 0.290429 center 3.915 0.103 0.444 ntor 4 -30.2146 -28.3431 -0.2441 150.5609
State:	 51.453   9.084  13.760  -0.778  0.062  0.626 146.233    -30.21  -28.34   -0.24  150.56

DOCKED: MODEL        7
DOCKED: USER    Run = 7
DOCKED: USER    DPF = malonic_acid.dpf
DOCKED: USER  
DOCKED: USER    Estimated Free Energy of Binding    =   -1.89 kcal/mol  [=(1)+(2)+(3)-(4)]
DOCKED: USER    Estimated Inhibition Constant, Ki   =   40.91 mM (millimolar)  [Temperature = 298.15 K]
DOCKED: USER    
DOCKED: USER    (1) Final Intermolecular Energy     =   -3.09 kcal/mol
DOCKED: USER        vdW + Hbond + desolv Energy     =   -1.94 kcal/mol
DOCKED: USER        Electrostatic Energy            =   -1.15 kcal/mol
DOCKED: USER    (2) Final Total Internal Energy     =   -0.86 kcal/mol
DOCKED: USER    (3) Torsional Free Energy           =   +1.19 kcal/mol
DOCKED: USER    (4) Unbound System's Energy  [=(2)] =   -0.86 kcal/mol
DOCKED: USER    
DOCKED: USER    
DOCKED: USER    NEWDPF move malonic_acid.pdbqt
DOCKED: USER    NEWDPF about 3.914778 0.102667 0.443889
DOCKED: USER    NEWDPF tran0 51.453215 9.083896 13.759512
DOCKED: USER    NEWDPF quaternion0 -0.744025 0.059398 0.598790 0.290429
DOCKED: USER    NEWDPF axisangle0 -0.777540 0.062073 0.625762 146.232731
DOCKED: USER    NEWDPF quat0 -0.777540 0.062073 0.625762 146.232731
DOCKED: USER    NEWDPF dihe0 -30.21 -28.34 -0.24 150.56 
DOCKED: USER  keepresnum = 1 
DOCKED: USER  
DOCKED: REMARK SMILES O=C(O)CC(=O)O
DOCKED: REMARK SMILES IDX 4 1 2 2 1 3 3 4 5 6 6 7 7 8
DOCKED: REMARK H PARENT 3 5 7 9
DOCKED: USER                              x       y       z     vdW  Elec       q    Type
DOCKED: USER                           _______ _______ _______ _____ _____    ______ ____
DOCKED: ROOT
DOCKED: ATOM      1  C   UNL     1      50.776   8.956  14.277 -0.17 +0.01    +0.244 C 
DOCKED: ENDROOT
DOCKED: BRANCH   1   2
DOCKED: ATOM      2  C   UNL     1      51.583  10.054  14.911 -0.32 +0.25    +0.314 C 
DOCKED: ATOM      3  O   UNL     1      51.221  10.577  15.960 -0.44 -0.10    -0.252 OA
DOCKED: BRANCH   2   4
DOCKED: ATOM      4  O   UNL     1      52.713  10.444  14.293 -0.11 -1.80    -0.481 OA
DOCKED: ATOM      5  H   UNL     1      53.178   9.743  13.773 -0.39 +0.50    +0.296 HD
DOCKED: ENDBRANCH   2   4
DOCKED: ENDBRANCH   1   2
DOCKED: BRANCH   1   6
DOCKED: ATOM      6  C   UNL     1      51.296   8.388  12.999 -0.11 -0.05    +0.314 C 
DOCKED: ATOM      7  O   UNL     1      51.105   7.234  12.638 -0.04 +0.06    -0.252 OA
DOCKED: BRANCH   6   8
DOCKED: ATOM      8  O   UNL     1      52.008   9.268  12.263 -0.09 +0.23    -0.481 OA
DOCKED: ATOM      9  H   UNL     1      51.760  10.206  12.380 -0.28 -0.24    +0.296 HD
DOCKED: ENDBRANCH   6   8
DOCKED: ENDBRANCH   1   6
DOCKED: TORSDOF 4
DOCKED: TER
DOCKED: ENDMDL
________________________________________________________________________________


	BEGINNING GENETIC ALGORITHM DOCKING 8 of 10
Run: 8 Seed: 845047801 83014794 [ Run 8 of 10 GA/GALS ]
Beginning LAMARCKIAN GENETIC ALGORITHM (LGA), with a maximum of 2500000 energy evaluations.

Final-Value: -4.467


	FINAL GENETIC ALGORITHM DOCKED STATE
	_______________________________________________


Detailed state:  trans 55.311 10.649 22.371 quatxyzw 0.214277 -0.120588 -0.181765 -0.952106 center 3.915 0.103 0.444 ntor 4 -42.3082 63.5518 41.9550 116.5661
State:	 55.311  10.649  22.371   0.701 -0.394 -0.594 -35.609    -42.31   63.55   41.95  116.57

DOCKED: MODEL        8
DOCKED: USER    Run = 8
DOCKED: USER    DPF = malonic_acid.dpf
DOCKED: USER  
DOCKED: USER    Estimated Free Energy of Binding    =   -2.57 kcal/mol  [=(1)+(2)+(3)-(4)]
DOCKED: USER    Estimated Inhibition Constant, Ki   =   13.08 mM (millimolar)  [Temperature = 298.15 K]
DOCKED: USER    
DOCKED: USER    (1) Final Intermolecular Energy     =   -3.76 kcal/mol
DOCKED: USER        vdW + Hbond + desolv Energy     =   -3.54 kcal/mol
DOCKED: USER        Electrostatic Energy            =   -0.23 kcal/mol
DOCKED: USER    (2) Final Total Internal Energy     =   -0.70 kcal/mol
DOCKED: USER    (3) Torsional Free Energy           =   +1.19 kcal/mol
DOCKED: USER    (4) Unbound System's Energy  [=(2)] =   -0.70 kcal/mol
DOCKED: USER    
DOCKED: USER    
DOCKED: USER    NEWDPF move malonic_acid.pdbqt
DOCKED: USER    NEWDPF about 3.914778 0.102667 0.443889
DOCKED: USER    NEWDPF tran0 55.311305 10.649210 22.370808
DOCKED: USER    NEWDPF quaternion0 0.214277 -0.120588 -0.181765 -0.952106
DOCKED: USER    NEWDPF axisangle0 0.700780 -0.394377 -0.594453 -35.608890
DOCKED: USER    NEWDPF quat0 0.700780 -0.394377 -0.594453 -35.608890
DOCKED: USER    NEWDPF dihe0 -42.31 63.55 41.95 116.57 
DOCKED: USER  keepresnum = 1 
DOCKED: USER  
DOCKED: REMARK SMILES O=C(O)CC(=O)O
DOCKED: REMARK SMILES IDX 4 1 2 2 1 3 3 4 5 6 6 7 7 8
DOCKED: REMARK H PARENT 3 5 7 9
DOCKED: USER                              x       y       z     vdW  Elec       q    Type
DOCKED: USER                           _______ _______ _______ _____ _____    ______ ____
DOCKED: ROOT
DOCKED: ATOM      1  C   UNL     1      54.658  10.814  22.909 -0.18 -0.08    +0.244 C 
DOCKED: ENDROOT
DOCKED: BRANCH   1   2
DOCKED: ATOM      2  C   UNL     1      54.198  11.258  21.549 -0.23 -0.06    +0.314 C 
DOCKED: ATOM      3  O   UNL     1      53.582  12.308  21.404 -0.92 +0.04    -0.252 OA
DOCKED: BRANCH   2   4
DOCKED: ATOM      4  O   UNL     1      54.485  10.468  20.497 -0.54 +0.08    -0.481 OA
DOCKED: ATOM      5  H   UNL     1      55.397  10.085  20.489 -0.38 -0.16    +0.296 HD
DOCKED: ENDBRANCH   2   4
DOCKED: ENDBRANCH   1   2
DOCKED: BRANCH   1   6
DOCKED: ATOM      6  C   UNL     1      56.031  10.237  23.003 -0.15 -0.10    +0.314 C 
DOCKED: ATOM      7  O   UNL     1      56.941  10.741  23.648 -0.72 +0.05    -0.252 OA
DOCKED: BRANCH   6   8
DOCKED: ATOM      8  O   UNL     1      56.189   9.093  22.302 -0.05 +0.22    -0.481 OA
DOCKED: ATOM      9  H   UNL     1      56.079   9.179  21.334 -0.37 -0.22    +0.296 HD
DOCKED: ENDBRANCH   6   8
DOCKED: ENDBRANCH   1   6
DOCKED: TORSDOF 4
DOCKED: TER
DOCKED: ENDMDL
________________________________________________________________________________


	BEGINNING GENETIC ALGORITHM DOCKING 9 of 10
Run: 9 Seed: 1118890647 1096118236 [ Run 9 of 10 GA/GALS ]
Beginning LAMARCKIAN GENETIC ALGORITHM (LGA), with a maximum of 2500000 energy evaluations.

Final-Value: -4.693


	FINAL GENETIC ALGORITHM DOCKED STATE
	_______________________________________________


Detailed state:  trans 55.009 11.107 22.109 quatxyzw 0.436583 -0.393440 -0.795930 0.145242 center 3.915 0.103 0.444 ntor 4 76.6910 -27.0372 -45.5789 177.4425
State:	 55.009  11.107  22.109   0.441 -0.398 -0.804 163.297     76.69  -27.04  -45.58  177.44

DOCKED: MODEL        9
DOCKED: USER    Run = 9
DOCKED: USER    DPF = malonic_acid.dpf
DOCKED: USER  
DOCKED: USER    Estimated Free Energy of Binding    =   -2.73 kcal/mol  [=(1)+(2)+(3)-(4)]
DOCKED: USER    Estimated Inhibition Constant, Ki   =   10.04 mM (millimolar)  [Temperature = 298.15 K]
DOCKED: USER    
DOCKED: USER    (1) Final Intermolecular Energy     =   -3.92 kcal/mol
DOCKED: USER        vdW + Hbond + desolv Energy     =   -3.67 kcal/mol
DOCKED: USER        Electrostatic Energy            =   -0.25 kcal/mol
DOCKED: USER    (2) Final Total Internal Energy     =   -0.77 kcal/mol
DOCKED: USER    (3) Torsional Free Energy           =   +1.19 kcal/mol
DOCKED: USER    (4) Unbound System's Energy  [=(2)] =   -0.77 kcal/mol
DOCKED: USER    
DOCKED: USER    
DOCKED: USER    NEWDPF move malonic_acid.pdbqt
DOCKED: USER    NEWDPF about 3.914778 0.102667 0.443889
DOCKED: USER    NEWDPF tran0 55.008773 11.107241 22.109473
DOCKED: USER    NEWDPF quaternion0 0.436583 -0.393440 -0.795930 0.145242
DOCKED: USER    NEWDPF axisangle0 0.441262 -0.397657 -0.804461 163.297364
DOCKED: USER    NEWDPF quat0 0.441262 -0.397657 -0.804461 163.297364
DOCKED: USER    NEWDPF dihe0 76.69 -27.04 -45.58 177.44 
DOCKED: USER  keepresnum = 1 
DOCKED: USER  
DOCKED: REMARK SMILES O=C(O)CC(=O)O
DOCKED: REMARK SMILES IDX 4 1 2 2 1 3 3 4 5 6 6 7 7 8
DOCKED: REMARK H PARENT 3 5 7 9
DOCKED: USER                              x       y       z     vdW  Elec       q    Type
DOCKED: USER                           _______ _______ _______ _____ _____    ______ ____
DOCKED: ROOT
DOCKED: ATOM      1  C   UNL     1      54.874  11.511  22.860 -0.19 -0.08    +0.244 C 
DOCKED: ENDROOT
DOCKED: BRANCH   1   2
DOCKED: ATOM      2  C   UNL     1      56.258  10.929  22.942 -0.12 -0.09    +0.314 C 
DOCKED: ATOM      3  O   UNL     1      57.196  11.595  23.365 -0.82 +0.05    -0.252 OA
DOCKED: BRANCH   2   4
DOCKED: ATOM      4  O   UNL     1      56.433   9.657  22.539 -0.20 +0.19    -0.481 OA
DOCKED: ATOM      5  H   UNL     1      56.455   9.520  21.560 -0.39 -0.25    +0.296 HD
DOCKED: ENDBRANCH   2   4
DOCKED: ENDBRANCH   1   2
DOCKED: BRANCH   1   6
DOCKED: ATOM      6  C   UNL     1      54.116  11.272  21.597 -0.23 -0.06    +0.314 C 
DOCKED: ATOM      7  O   UNL     1      52.966  11.647  21.410 -0.83 +0.04    -0.252 OA
DOCKED: BRANCH   6   8
DOCKED: ATOM      8  O   UNL     1      54.816  10.594  20.662 -0.50 +0.11    -0.481 OA
DOCKED: ATOM      9  H   UNL     1      55.787  10.697  20.713 -0.40 -0.16    +0.296 HD
DOCKED: ENDBRANCH   6   8
DOCKED: ENDBRANCH   1   6
DOCKED: TORSDOF 4
DOCKED: TER
DOCKED: ENDMDL
________________________________________________________________________________


	BEGINNING GENETIC ALGORITHM DOCKING 10 of 10
Run: 10 Seed: 1981082760 1979895749 [ Run 10 of 10 GA/GALS ]
Beginning LAMARCKIAN GENETIC ALGORITHM (LGA), with a maximum of 2500000 energy evaluations.

Final-Value: -4.056


	FINAL GENETIC ALGORITHM DOCKED STATE
	_______________________________________________


Detailed state:  trans 52.130 8.927 13.952 quatxyzw -0.647756 -0.187169 0.557181 0.484694 center 3.915 0.103 0.444 ntor 4 44.0266 92.0523 4.6911 141.2956
State:	 52.130   8.927  13.952  -0.741 -0.214  0.637 122.015     44.03   92.05    4.69  141.30

DOCKED: MODEL       10
DOCKED: USER    Run = 10
DOCKED: USER    DPF = malonic_acid.dpf
DOCKED: USER  
DOCKED: USER    Estimated Free Energy of Binding    =   -2.08 kcal/mol  [=(1)+(2)+(3)-(4)]
DOCKED: USER    Estimated Inhibition Constant, Ki   =   30.07 mM (millimolar)  [Temperature = 298.15 K]
DOCKED: USER    
DOCKED: USER    (1) Final Intermolecular Energy     =   -3.27 kcal/mol
DOCKED: USER        vdW + Hbond + desolv Energy     =   -2.03 kcal/mol
DOCKED: USER        Electrostatic Energy            =   -1.24 kcal/mol
DOCKED: USER    (2) Final Total Internal Energy     =   -0.79 kcal/mol
DOCKED: USER    (3) Torsional Free Energy           =   +1.19 kcal/mol
DOCKED: USER    (4) Unbound System's Energy  [=(2)] =   -0.79 kcal/mol
DOCKED: USER    
DOCKED: USER    
DOCKED: USER    NEWDPF move malonic_acid.pdbqt
DOCKED: USER    NEWDPF about 3.914778 0.102667 0.443889
DOCKED: USER    NEWDPF tran0 52.130254 8.926903 13.951786
DOCKED: USER    NEWDPF quaternion0 -0.647756 -0.187169 0.557181 0.484694
DOCKED: USER    NEWDPF axisangle0 -0.740561 -0.213985 0.637009 122.015087
DOCKED: USER    NEWDPF quat0 -0.740561 -0.213985 0.637009 122.015087
DOCKED: USER    NEWDPF dihe0 44.03 92.05 4.69 141.30 
DOCKED: USER  keepresnum = 1 
DOCKED: USER  
DOCKED: REMARK SMILES O=C(O)CC(=O)O
DOCKED: REMARK SMILES IDX 4 1 2 2 1 3 3 4 5 6 6 7 7 8
DOCKED: REMARK H PARENT 3 5 7 9
DOCKED: USER                              x       y       z     vdW  Elec       q    Type
DOCKED: USER                           _______ _______ _______ _____ _____    ______ ____
DOCKED: ROOT
DOCKED: ATOM      1  C   UNL     1      51.770   8.497  14.607 -0.19 +0.03    +0.244 C 
DOCKED: ENDROOT
DOCKED: BRANCH   1   2
DOCKED: ATOM      2  C   UNL     1      51.885   9.925  15.060 -0.33 +0.27    +0.314 C 
DOCKED: ATOM      3  O   UNL     1      51.578  10.250  16.202 -0.44 -0.08    -0.252 OA
DOCKED: BRANCH   2   4
DOCKED: ATOM      4  O   UNL     1      52.336  10.834  14.175 -0.05 -1.82    -0.481 OA
DOCKED: ATOM      5  H   UNL     1      51.954  10.768  13.265 -0.27 +0.31    +0.296 HD
DOCKED: ENDBRANCH   2   4
DOCKED: ENDBRANCH   1   2
DOCKED: BRANCH   1   6
DOCKED: ATOM      6  C   UNL     1      52.268   8.182  13.236 -0.13 -0.02    +0.314 C 
DOCKED: ATOM      7  O   UNL     1      52.870   7.156  12.948 -0.14 +0.05    -0.252 OA
DOCKED: BRANCH   6   8
DOCKED: ATOM      8  O   UNL     1      51.996   9.140  12.325 -0.10 +0.20    -0.481 OA
DOCKED: ATOM      9  H   UNL     1      52.693   9.816  12.210 -0.38 -0.18    +0.296 HD
DOCKED: ENDBRANCH   6   8
DOCKED: ENDBRANCH   1   6
DOCKED: TORSDOF 4
DOCKED: TER
DOCKED: ENDMDL
________________________________________________________________________________

DPF> analysis


		CLUSTER ANALYSIS OF CONFORMATIONS
		_________________________________

Number of conformations = 10

RMSD cluster analysis will be performed using the ligand atoms only (9 / 9 total atoms).

Outputting structurally similar clusters, ranked in order of increasing energy.


________________________________________________________________________________

Number of distinct conformational clusters found = 2,  out of 10 runs,
Using an rmsd-tolerance of 2.0 A


	CLUSTERING HISTOGRAM
	____________________

________________________________________________________________________________
     |           |     |           |     |                                    
Clus | Lowest    | Run | Mean      | Num | Histogram                          
-ter | Binding   |     | Binding   | in  |                                    
Rank | Energy    |     | Energy    | Clus|    5    10   15   20   25   30   35
_____|___________|_____|___________|_____|____:____|____:____|____:____|____:___
   1 |     -2.80 |   3 |     -2.70 |   6 |######
   2 |     -2.21 |   4 |     -2.06 |   4 |####
_____|___________|_____|___________|_____|______________________________________


Number of multi-member conformational clusters found = 2, out of 10 runs.

	RMSD TABLE
	__________

_____________________________________________________________________
     |      |      |           |         |                 |
Rank | Sub- | Run  | Binding   | Cluster | Reference       | Grep
     | Rank |      | Energy    | RMSD    | RMSD            | Pattern
_____|______|______|___________|_________|_________________|___________
   1      1      3       -2.80      0.00     55.15           RANKING
   1      2      6       -2.78      0.24     55.23           RANKING
   1      3      2       -2.74      0.13     55.17           RANKING
   1      4      9       -2.73      0.16     55.18           RANKING
   1      5      8       -2.57      0.59     54.96           RANKING
   1      6      1       -2.56      0.48     55.32           RANKING
   2      1      4       -2.21      0.00     48.95           RANKING
   2      2     10       -2.08      1.13     49.35           RANKING
   2      3      5       -2.06      0.55     48.78           RANKING
   2      4      7       -1.89      0.74     48.95           RANKING
_______________________________________________________________________



	INFORMATION ENTROPY ANALYSIS FOR THIS CLUSTERING
	________________________________________________


Information entropy for this clustering = 0.29  (rmstol = 2.00 Angstrom)

_______________________________________________________________________


	STATISTICAL MECHANICAL ANALYSIS
	_______________________________


Partition function, Q =    10.04            at Temperature, T = 298.15 K
Free energy,        A ~ -1366.68 kcal/mol   at Temperature, T = 298.15 K
Internal energy,    U =    -2.44 kcal/mol   at Temperature, T = 298.15 K
Entropy,            S =     4.58 kcal/mol/K at Temperature, T = 298.15 K

_______________________________________________________________________


	LOWEST ENERGY DOCKED CONFORMATION from EACH CLUSTER
	___________________________________________________



Keeping original residue number (specified in the input PDBQ file) for outputting.

MODEL        3
USER    Run = 3
USER    Cluster Rank = 1
USER    Number of conformations in this cluster = 6
USER  
USER    RMSD from reference structure       = 55.154 A
USER  
USER    Estimated Free Energy of Binding    =   -2.80 kcal/mol  [=(1)+(2)+(3)-(4)]
USER    Estimated Inhibition Constant, Ki   =    8.85 mM (millimolar)  [Temperature = 298.15 K]
USER    
USER    (1) Final Intermolecular Energy     =   -3.99 kcal/mol
USER        vdW + Hbond + desolv Energy     =   -3.76 kcal/mol
USER        Electrostatic Energy            =   -0.24 kcal/mol
USER    (2) Final Total Internal Energy     =   -0.79 kcal/mol
USER    (3) Torsional Free Energy           =   +1.19 kcal/mol
USER    (4) Unbound System's Energy  [=(2)] =   -0.79 kcal/mol
USER    
USER    
USER  
USER    DPF = malonic_acid.dpf
USER    NEWDPF move	malonic_acid.pdbqt
USER    NEWDPF about	3.914778 0.102667 0.443889
USER    NEWDPF tran0	55.012542 11.140884 22.104753
USER    NEWDPF axisangle0	0.451302 -0.307428 -0.837744 160.498092
USER    NEWDPF quaternion0	0.444782 -0.302987 -0.825641 0.169366
USER    NEWDPF dihe0	66.20 -30.03 -58.99 -165.56 
USER  
USER                              x       y       z    vdW   Elec        q     RMS 
ATOM      1  C   UNL     1      54.834  11.390  22.911 -0.19 -0.08    +0.244    55.154
ATOM      2  C   UNL     1      56.247  10.877  22.936 -0.13 -0.09    +0.314    55.154
ATOM      3  O   UNL     1      57.173  11.599  23.288 -0.82 +0.04    -0.252    55.154
ATOM      4  O   UNL     1      56.462   9.602  22.563 -0.20 +0.19    -0.481    55.154
ATOM      5  H   UNL     1      56.281   9.400  21.612 -0.38 -0.22    +0.296    55.154
ATOM      6  C   UNL     1      54.126  11.351  21.598 -0.22 -0.06    +0.314    55.154
ATOM      7  O   UNL     1      53.087  11.956  21.365 -0.86 +0.03    -0.252    55.154
ATOM      8  O   UNL     1      54.735  10.578  20.674 -0.53 +0.11    -0.481    55.154
ATOM      9  H   UNL     1      55.708  10.519  20.756 -0.43 -0.17    +0.296    55.154
TER
ENDMDL
MODEL        4
USER    Run = 4
USER    Cluster Rank = 2
USER    Number of conformations in this cluster = 4
USER  
USER    RMSD from reference structure       = 48.948 A
USER  
USER    Estimated Free Energy of Binding    =   -2.21 kcal/mol  [=(1)+(2)+(3)-(4)]
USER    Estimated Inhibition Constant, Ki   =   23.98 mM (millimolar)  [Temperature = 298.15 K]
USER    
USER    (1) Final Intermolecular Energy     =   -3.40 kcal/mol
USER        vdW + Hbond + desolv Energy     =   -2.16 kcal/mol
USER        Electrostatic Energy            =   -1.24 kcal/mol
USER    (2) Final Total Internal Energy     =   -0.80 kcal/mol
USER    (3) Torsional Free Energy           =   +1.19 kcal/mol
USER    (4) Unbound System's Energy  [=(2)] =   -0.80 kcal/mol
USER    
USER    
USER  
USER    DPF = malonic_acid.dpf
USER    NEWDPF move	malonic_acid.pdbqt
USER    NEWDPF about	3.914778 0.102667 0.443889
USER    NEWDPF tran0	51.401919 9.653176 14.027655
USER    NEWDPF axisangle0	0.268297 -0.544406 0.794757 -60.110259
USER    NEWDPF quaternion0	0.134372 -0.272657 0.398041 -0.865544
USER    NEWDPF dihe0	-87.13 -36.44 29.77 167.36 
USER  
USER                              x       y       z    vdW   Elec        q     RMS 
ATOM      1  C   UNL     1      50.725   9.146  14.198 -0.17 +0.02    +0.244    48.948
ATOM      2  C   UNL     1      51.030   8.957  12.739 -0.13 -0.08    +0.314    48.948
ATOM      3  O   UNL     1      50.141   8.679  11.941 -0.11 +0.10    -0.252    48.948
ATOM      4  O   UNL     1      52.305   9.105  12.335 -0.10 +0.18    -0.481    48.948
ATOM      5  H   UNL     1      52.576  10.028  12.108 -0.37 -0.30    +0.296    48.948
ATOM      6  C   UNL     1      51.598  10.094  14.952 -0.32 +0.26    +0.314    48.948
ATOM      7  O   UNL     1      51.340  10.515  16.072 -0.46 -0.10    -0.252    48.948
ATOM      8  O   UNL     1      52.713  10.455  14.283 -0.10 -1.82    -0.481    48.948
ATOM      9  H   UNL     1      53.121   9.751  13.741 -0.39 +0.49    +0.296    48.948
TER
ENDMDL


AVSFLD: # AVS field file
AVSFLD: #
AVSFLD: # Created by AutoDock
AVSFLD: #
AVSFLD: ndim=2           # number of dimensions in the field
AVSFLD: nspace=1         # number of physical coordinates
AVSFLD: veclen=7         # vector size
AVSFLD: dim1=9           # atoms
AVSFLD: dim2=2           # conformations
AVSFLD: data=Real       # data type (byte,integer,Real,double)
AVSFLD: field=uniform    # field coordinate layout
AVSFLD: label= x y z vdW Elec q RMS
AVSFLD: variable 1 file = malonic_acid.dlg.pdb filetype = ascii offset = 5 stride = 12
AVSFLD: variable 2 file = malonic_acid.dlg.pdb filetype = ascii offset = 6 stride = 12
AVSFLD: variable 3 file = malonic_acid.dlg.pdb filetype = ascii offset = 7 stride = 12
AVSFLD: variable 4 file = malonic_acid.dlg.pdb filetype = ascii offset = 8 stride = 12
AVSFLD: variable 5 file = malonic_acid.dlg.pdb filetype = ascii offset = 9 stride = 12
AVSFLD: variable 6 file = malonic_acid.dlg.pdb filetype = ascii offset = 10 stride = 12
AVSFLD: variable 7 file = malonic_acid.dlg.pdb filetype = ascii offset = 11 stride = 12
AVSFLD: # end of file

>>> Closing the docking parameter file (DPF)...
This docking finished at:			4:16 15" p.m., 09/11/2026


________________________________________________________________________________

autodock4: Successful Completion on "VP"

Real= 48.35s,  CPU= 48.30s,  System= 0.04s
________________________________________________________________________________

