REMARK SMILES O=C(O)C(=O)O
REMARK SMILES IDX 2 1 1 2 3 3 4 5 5 6 6 7
REMARK H PARENT 3 4 6 8
ROOT
ATOM      1  C   UNL     1       2.500   0.066  -0.106  1.00  0.00    +0.414 C 
ATOM      2  O   UNL     1       3.194   1.023  -0.398  1.00  0.00    -0.238 OA
ENDROOT
BRANCH   1   3
ATOM      3  O   UNL     1       1.160   0.011  -0.090  1.00  0.00    -0.473 OA
ATOM      4  H   UNL     1       0.868  -0.890   0.186  1.00  0.00    +0.297 HD
ENDBRANCH   1   3
BRANCH   1   5
ATOM      5  C   UNL     1       3.140  -1.270   0.303  1.00  0.00    +0.414 C 
ATOM      6  O   UNL     1       2.446  -2.228   0.596  1.00  0.00    -0.238 OA
BRANCH   5   7
ATOM      7  O   UNL     1       4.480  -1.215   0.288  1.00  0.00    -0.473 OA
ATOM      8  H   UNL     1       4.772  -0.314   0.012  1.00  0.00    +0.297 HD
ENDBRANCH   5   7
ENDBRANCH   1   5
TORSDOF 3
