REMARK SMILES O=C1O[C@@H]([C@@H](O)CO)C(O)=C1O
REMARK SMILES IDX 5 1 4 2 9 3 11 4 2 5 3 6 1 7 10 8 12 10 6 12 7 14 8 15
REMARK H PARENT 10 9 12 11 6 13 8 16
ROOT
ATOM      1  C   UNL     1       2.724   2.219  -0.772  1.00  0.00    +0.188 C 
ENDROOT
BRANCH   1   2
ATOM      2  C   UNL     1       3.088   1.128   0.258  1.00  0.00    +0.277 C 
ATOM      3  C   UNL     1       2.307  -0.132   0.135  1.00  0.00    +0.186 C 
ATOM      4  C   UNL     1       3.093  -1.171  -0.133  1.00  0.00    +0.244 C 
ATOM      5  C   UNL     1       4.472  -0.647  -0.205  1.00  0.00    +0.377 C 
ATOM      6  O   UNL     1       4.443   0.696   0.047  1.00  0.00    -0.445 OA
ATOM      7  O   UNL     1       5.479  -1.292  -0.427  1.00  0.00    -0.242 OA
BRANCH   3   8
ATOM      8  O   UNL     1       0.954  -0.142   0.337  1.00  0.00    -0.505 OA
ATOM      9  H   UNL     1       0.557  -0.890  -0.140  1.00  0.00    +0.293 HD
ENDBRANCH   3   8
BRANCH   4  10
ATOM     10  O   UNL     1       2.755  -2.487  -0.262  1.00  0.00    -0.499 OA
ATOM     11  H   UNL     1       1.859  -2.617   0.086  1.00  0.00    +0.294 HD
ENDBRANCH   4  10
ENDBRANCH   1   2
BRANCH   1  12
ATOM     12  O   UNL     1       1.377   2.682  -0.604  1.00  0.00    -0.386 OA
ATOM     13  H   UNL     1       1.318   3.147   0.251  1.00  0.00    +0.211 HD
ENDBRANCH   1  12
BRANCH   1  14
ATOM     14  C   UNL     1       3.684   3.418  -0.670  1.00  0.00    +0.192 C 
BRANCH  14  15
ATOM     15  O   UNL     1       3.315   4.468  -1.563  1.00  0.00    -0.394 OA
ATOM     16  H   UNL     1       2.902   4.067  -2.349  1.00  0.00    +0.210 HD
ENDBRANCH  14  15
ENDBRANCH   1  14
TORSDOF 6
