REMARK SMILES O=C(O)CN(CCOCCOCCN(CC(=O)O)CC(=O)O)CC(=O)O
REMARK SMILES IDX 9 1 8 2 7 3 6 4 5 5 4 6 2 7 1 8 3 9 23 11 24 12 25 13 26 14
REMARK SMILES IDX 10 16 11 17 12 18 13 19 14 20 15 21 16 22 17 23 18 24 19 26
REMARK SMILES IDX 20 27 21 28 22 29
REMARK H PARENT 3 10 26 15 18 25 22 30
ROOT
ATOM      1  C   UNL     1       9.093  -1.318   2.458  1.00  0.00    +0.188 C 
ENDROOT
BRANCH   1   2
ATOM      2  O   UNL     1       7.681  -1.512   2.658  1.00  0.00    -0.378 OA
BRANCH   2   3
ATOM      3  C   UNL     1       6.902  -0.893   1.617  1.00  0.00    +0.175 C 
BRANCH   3   4
ATOM      4  C   UNL     1       5.383  -1.082   1.867  1.00  0.00    +0.114 C 
BRANCH   4   5
ATOM      5  N   UNL     1       4.787  -0.375   3.043  1.00  0.00    -0.280 NA
BRANCH   5   6
ATOM      6  C   UNL     1       3.310  -0.682   3.051  1.00  0.00    +0.208 C 
BRANCH   6   7
ATOM      7  C   UNL     1       2.555   0.111   4.119  1.00  0.00    +0.317 C 
ATOM      8  O   UNL     1       1.515  -0.244   4.645  1.00  0.00    -0.251 OA
BRANCH   7   9
ATOM      9  O   UNL     1       3.150   1.304   4.386  1.00  0.00    -0.480 OA
ATOM     10  H   UNL     1       3.968   1.365   3.846  1.00  0.00    +0.296 HD
ENDBRANCH   7   9
ENDBRANCH   6   7
ENDBRANCH   5   6
BRANCH   5  11
ATOM     11  C   UNL     1       5.404  -0.769   4.345  1.00  0.00    +0.208 C 
BRANCH  11  12
ATOM     12  C   UNL     1       5.264  -2.246   4.672  1.00  0.00    +0.317 C 
ATOM     13  O   UNL     1       4.382  -2.720   5.371  1.00  0.00    -0.251 OA
BRANCH  12  14
ATOM     14  O   UNL     1       6.171  -3.017   4.049  1.00  0.00    -0.480 OA
ATOM     15  H   UNL     1       6.841  -2.482   3.556  1.00  0.00    +0.296 HD
ENDBRANCH  12  14
ENDBRANCH  11  12
ENDBRANCH   5  11
ENDBRANCH   4   5
ENDBRANCH   3   4
ENDBRANCH   2   3
ENDBRANCH   1   2
BRANCH   1  16
ATOM     16  C   UNL     1       9.858  -1.792   3.701  1.00  0.00    +0.188 C 
BRANCH  16  17
ATOM     17  O   UNL     1       9.736  -3.220   3.867  1.00  0.00    -0.378 OA
BRANCH  17  18
ATOM     18  C   UNL     1      10.358  -3.638   5.102  1.00  0.00    +0.175 C 
BRANCH  18  19
ATOM     19  C   UNL     1      10.197  -5.160   5.362  1.00  0.00    +0.114 C 
BRANCH  19  20
ATOM     20  N   UNL     1       8.829  -5.577   5.774  1.00  0.00    -0.280 NA
BRANCH  20  21
ATOM     21  C   UNL     1       7.833  -5.363   4.696  1.00  0.00    +0.208 C 
BRANCH  21  22
ATOM     22  C   UNL     1       8.126  -6.072   3.376  1.00  0.00    +0.317 C 
ATOM     23  O   UNL     1       7.793  -7.222   3.125  1.00  0.00    -0.251 OA
BRANCH  22  24
ATOM     24  O   UNL     1       8.851  -5.325   2.505  1.00  0.00    -0.480 OA
ATOM     25  H   UNL     1       9.119  -4.457   2.888  1.00  0.00    +0.296 HD
ENDBRANCH  22  24
ENDBRANCH  21  22
ENDBRANCH  20  21
BRANCH  20  26
ATOM     26  C   UNL     1       8.773  -7.011   6.188  1.00  0.00    +0.208 C 
BRANCH  26  27
ATOM     27  C   UNL     1       9.479  -7.209   7.527  1.00  0.00    +0.317 C 
ATOM     28  O   UNL     1       9.986  -8.253   7.902  1.00  0.00    -0.251 OA
BRANCH  27  29
ATOM     29  O   UNL     1       9.445  -6.085   8.292  1.00  0.00    -0.480 OA
ATOM     30  H   UNL     1       8.986  -5.390   7.766  1.00  0.00    +0.296 HD
ENDBRANCH  27  29
ENDBRANCH  26  27
ENDBRANCH  20  26
ENDBRANCH  19  20
ENDBRANCH  18  19
ENDBRANCH  17  18
ENDBRANCH  16  17
ENDBRANCH   1  16
TORSDOF 21
