REMARK SMILES O=C(O)c1ccccc1O
REMARK SMILES IDX 4 1 5 2 6 3 7 4 8 5 9 6 2 7 1 8 3 9 10 11
REMARK H PARENT 3 10 10 12
ROOT
ATOM      1  C   UNL     1       3.174   0.084   1.281  1.00  0.00    +0.101 A 
ATOM      2  C   UNL     1       3.448   1.370   1.772  1.00  0.00    +0.019 A 
ATOM      3  C   UNL     1       4.200   1.535   2.935  1.00  0.00    +0.001 A 
ATOM      4  C   UNL     1       4.697   0.420   3.605  1.00  0.00    +0.004 A 
ATOM      5  C   UNL     1       4.442  -0.864   3.123  1.00  0.00    +0.047 A 
ATOM      6  C   UNL     1       3.677  -1.028   1.966  1.00  0.00    +0.130 A 
ENDROOT
BRANCH   1   7
ATOM      7  C   UNL     1       2.365  -0.015   0.035  1.00  0.00    +0.339 C 
ATOM      8  O   UNL     1       2.260   0.906  -0.758  1.00  0.00    -0.246 OA
BRANCH   7   9
ATOM      9  O   UNL     1       1.701  -1.183  -0.107  1.00  0.00    -0.478 OA
ATOM     10  H   UNL     1       1.975  -1.845   0.565  1.00  0.00    +0.297 HD
ENDBRANCH   7   9
ENDBRANCH   1   7
BRANCH   6  11
ATOM     11  O   UNL     1       3.407  -2.293   1.512  1.00  0.00    -0.507 OA
ATOM     12  H   UNL     1       4.016  -2.914   1.953  1.00  0.00    +0.293 HD
ENDBRANCH   6  11
TORSDOF 3
