MODEL 1
REMARK VINA RESULT:      -5.5      0.000      0.000
REMARK SMILES Cn1c(=O)c2c(ncn2C)n(C)c1=O
REMARK SMILES IDX 10 1 9 2 8 3 7 4 6 5 5 6 3 7 4 8 2 9 1 10 13 11 14 12 11 13
REMARK SMILES IDX 12 14
REMARK H PARENT
ROOT
ATOM      1  C   UNL     1       9.262  25.663   3.424  1.00  0.00    +0.151 C 
ATOM      2  N   UNL     1       9.209  26.387   4.670  1.00  0.00    -0.328 N 
ATOM      3  C   UNL     1       8.342  27.400   4.981  1.00  0.00    +0.202 A 
ATOM      4  N   UNL     1       8.547  27.860   6.199  1.00  0.00    -0.218 NA
ATOM      5  C   UNL     1       9.581  27.109   6.674  1.00  0.00    +0.167 A 
ATOM      6  C   UNL     1      10.009  26.196   5.760  1.00  0.00    +0.152 A 
ATOM      7  C   UNL     1      11.075  25.290   6.005  1.00  0.00    +0.282 A 
ATOM      8  O   UNL     1      11.454  24.470   5.172  1.00  0.00    -0.267 OA
ATOM      9  N   UNL     1      11.629  25.437   7.279  1.00  0.00    -0.261 N 
ATOM     10  C   UNL     1      12.726  24.565   7.653  1.00  0.00    +0.159 C 
ATOM     11  C   UNL     1      11.214  26.369   8.253  1.00  0.00    +0.332 A 
ATOM     12  O   UNL     1      11.769  26.424   9.356  1.00  0.00    -0.247 OA
ATOM     13  N   UNL     1      10.159  27.217   7.916  1.00  0.00    -0.279 N 
ATOM     14  C   UNL     1       9.672  28.205   8.862  1.00  0.00    +0.157 C 
ENDROOT
TORSDOF 0
ENDMDL
MODEL 2
REMARK VINA RESULT:      -5.5      7.680      9.419
REMARK SMILES Cn1c(=O)c2c(ncn2C)n(C)c1=O
REMARK SMILES IDX 10 1 9 2 8 3 7 4 6 5 5 6 3 7 4 8 2 9 1 10 13 11 14 12 11 13
REMARK SMILES IDX 12 14
REMARK H PARENT
ROOT
ATOM      1  C   UNL     1      17.265  17.826   1.818  1.00  0.00    +0.151 C 
ATOM      2  N   UNL     1      16.435  18.745   2.556  1.00  0.00    -0.328 N 
ATOM      3  C   UNL     1      15.242  19.274   2.139  1.00  0.00    +0.202 A 
ATOM      4  N   UNL     1      14.727  20.085   3.042  1.00  0.00    -0.218 NA
ATOM      5  C   UNL     1      15.626  20.066   4.066  1.00  0.00    +0.167 A 
ATOM      6  C   UNL     1      16.685  19.254   3.799  1.00  0.00    +0.152 A 
ATOM      7  C   UNL     1      17.763  19.058   4.702  1.00  0.00    +0.282 A 
ATOM      8  O   UNL     1      18.715  18.324   4.451  1.00  0.00    -0.267 OA
ATOM      9  N   UNL     1      17.616  19.785   5.887  1.00  0.00    -0.261 N 
ATOM     10  C   UNL     1      18.652  19.668   6.894  1.00  0.00    +0.159 C 
ATOM     11  C   UNL     1      16.536  20.636   6.200  1.00  0.00    +0.332 A 
ATOM     12  O   UNL     1      16.495  21.240   7.277  1.00  0.00    -0.247 OA
ATOM     13  N   UNL     1      15.526  20.763   5.246  1.00  0.00    -0.279 N 
ATOM     14  C   UNL     1      14.380  21.619   5.491  1.00  0.00    +0.157 C 
ENDROOT
TORSDOF 0
ENDMDL
MODEL 3
REMARK VINA RESULT:      -5.5      1.636      3.595
REMARK SMILES Cn1c(=O)c2c(ncn2C)n(C)c1=O
REMARK SMILES IDX 10 1 9 2 8 3 7 4 6 5 5 6 3 7 4 8 2 9 1 10 13 11 14 12 11 13
REMARK SMILES IDX 12 14
REMARK H PARENT
ROOT
ATOM      1  C   UNL     1      12.995  24.063   6.480  1.00  0.00    +0.151 C 
ATOM      2  N   UNL     1      12.257  25.033   7.249  1.00  0.00    -0.328 N 
ATOM      3  C   UNL     1      12.494  25.384   8.551  1.00  0.00    +0.202 A 
ATOM      4  N   UNL     1      11.643  26.300   8.971  1.00  0.00    -0.218 NA
ATOM      5  C   UNL     1      10.841  26.536   7.895  1.00  0.00    +0.167 A 
ATOM      6  C   UNL     1      11.191  25.774   6.822  1.00  0.00    +0.152 A 
ATOM      7  C   UNL     1      10.515  25.828   5.574  1.00  0.00    +0.282 A 
ATOM      8  O   UNL     1      10.838  25.135   4.613  1.00  0.00    -0.267 OA
ATOM      9  N   UNL     1       9.459  26.743   5.570  1.00  0.00    -0.261 N 
ATOM     10  C   UNL     1       8.689  26.893   4.350  1.00  0.00    +0.159 C 
ATOM     11  C   UNL     1       9.065  27.549   6.659  1.00  0.00    +0.332 A 
ATOM     12  O   UNL     1       8.114  28.330   6.558  1.00  0.00    -0.247 OA
ATOM     13  N   UNL     1       9.792  27.422   7.843  1.00  0.00    -0.279 N 
ATOM     14  C   UNL     1       9.451  28.215   9.009  1.00  0.00    +0.157 C 
ENDROOT
TORSDOF 0
ENDMDL
MODEL 4
REMARK VINA RESULT:      -5.4      7.470      9.530
REMARK SMILES Cn1c(=O)c2c(ncn2C)n(C)c1=O
REMARK SMILES IDX 10 1 9 2 8 3 7 4 6 5 5 6 3 7 4 8 2 9 1 10 13 11 14 12 11 13
REMARK SMILES IDX 12 14
REMARK H PARENT
ROOT
ATOM      1  C   UNL     1      13.499  21.721   3.686  1.00  0.00    +0.151 C 
ATOM      2  N   UNL     1      14.650  21.332   4.462  1.00  0.00    -0.328 N 
ATOM      3  C   UNL     1      15.002  21.824   5.690  1.00  0.00    +0.202 A 
ATOM      4  N   UNL     1      16.111  21.267   6.137  1.00  0.00    -0.218 NA
ATOM      5  C   UNL     1      16.470  20.392   5.157  1.00  0.00    +0.167 A 
ATOM      6  C   UNL     1      15.594  20.408   4.114  1.00  0.00    +0.152 A 
ATOM      7  C   UNL     1      15.739  19.589   2.963  1.00  0.00    +0.282 A 
ATOM      8  O   UNL     1      14.943  19.612   2.028  1.00  0.00    -0.267 OA
ATOM      9  N   UNL     1      16.870  18.771   3.019  1.00  0.00    -0.261 N 
ATOM     10  C   UNL     1      17.128  17.884   1.902  1.00  0.00    +0.159 C 
ATOM     11  C   UNL     1      17.800  18.726   4.079  1.00  0.00    +0.332 A 
ATOM     12  O   UNL     1      18.774  17.967   4.036  1.00  0.00    -0.247 OA
ATOM     13  N   UNL     1      17.571  19.570   5.165  1.00  0.00    -0.279 N 
ATOM     14  C   UNL     1      18.481  19.585   6.296  1.00  0.00    +0.157 C 
ENDROOT
TORSDOF 0
ENDMDL
MODEL 5
REMARK VINA RESULT:      -5.4      7.972     10.182
REMARK SMILES Cn1c(=O)c2c(ncn2C)n(C)c1=O
REMARK SMILES IDX 10 1 9 2 8 3 7 4 6 5 5 6 3 7 4 8 2 9 1 10 13 11 14 12 11 13
REMARK SMILES IDX 12 14
REMARK H PARENT
ROOT
ATOM      1  C   UNL     1      17.262  17.241   1.759  1.00  0.00    +0.151 C 
ATOM      2  N   UNL     1      17.535  17.812   3.055  1.00  0.00    -0.328 N 
ATOM      3  C   UNL     1      18.530  17.429   3.915  1.00  0.00    +0.202 A 
ATOM      4  N   UNL     1      18.518  18.145   5.022  1.00  0.00    -0.218 NA
ATOM      5  C   UNL     1      17.479  19.011   4.854  1.00  0.00    +0.167 A 
ATOM      6  C   UNL     1      16.855  18.832   3.657  1.00  0.00    +0.152 A 
ATOM      7  C   UNL     1      15.741  19.605   3.236  1.00  0.00    +0.282 A 
ATOM      8  O   UNL     1      15.185  19.435   2.154  1.00  0.00    -0.267 OA
ATOM      9  N   UNL     1      15.360  20.564   4.179  1.00  0.00    -0.261 N 
ATOM     10  C   UNL     1      14.234  21.422   3.865  1.00  0.00    +0.159 C 
ATOM     11  C   UNL     1      15.979  20.780   5.428  1.00  0.00    +0.332 A 
ATOM     12  O   UNL     1      15.568  21.655   6.197  1.00  0.00    -0.247 OA
ATOM     13  N   UNL     1      17.066  19.967   5.750  1.00  0.00    -0.279 N 
ATOM     14  C   UNL     1      17.758  20.125   7.017  1.00  0.00    +0.157 C 
ENDROOT
TORSDOF 0
ENDMDL
MODEL 6
REMARK VINA RESULT:      -5.4      1.524      3.000
REMARK SMILES Cn1c(=O)c2c(ncn2C)n(C)c1=O
REMARK SMILES IDX 10 1 9 2 8 3 7 4 6 5 5 6 3 7 4 8 2 9 1 10 13 11 14 12 11 13
REMARK SMILES IDX 12 14
REMARK H PARENT
ROOT
ATOM      1  C   UNL     1       8.270  26.899   3.693  1.00  0.00    +0.151 C 
ATOM      2  N   UNL     1       9.288  26.166   4.402  1.00  0.00    -0.328 N 
ATOM      3  C   UNL     1      10.006  25.104   3.919  1.00  0.00    +0.202 A 
ATOM      4  N   UNL     1      10.863  24.649   4.811  1.00  0.00    -0.218 NA
ATOM      5  C   UNL     1      10.680  25.453   5.897  1.00  0.00    +0.167 A 
ATOM      6  C   UNL     1       9.720  26.393   5.678  1.00  0.00    +0.152 A 
ATOM      7  C   UNL     1       9.337  27.356   6.649  1.00  0.00    +0.282 A 
ATOM      8  O   UNL     1       8.469  28.200   6.442  1.00  0.00    -0.267 OA
ATOM      9  N   UNL     1      10.049  27.231   7.845  1.00  0.00    -0.261 N 
ATOM     10  C   UNL     1       9.751  28.160   8.918  1.00  0.00    +0.159 C 
ATOM     11  C   UNL     1      11.048  26.271   8.111  1.00  0.00    +0.332 A 
ATOM     12  O   UNL     1      11.623  26.240   9.204  1.00  0.00    -0.247 OA
ATOM     13  N   UNL     1      11.352  25.369   7.092  1.00  0.00    -0.279 N 
ATOM     14  C   UNL     1      12.369  24.350   7.285  1.00  0.00    +0.157 C 
ENDROOT
TORSDOF 0
ENDMDL
MODEL 7
REMARK VINA RESULT:      -5.3      1.345      3.547
REMARK SMILES Cn1c(=O)c2c(ncn2C)n(C)c1=O
REMARK SMILES IDX 10 1 9 2 8 3 7 4 6 5 5 6 3 7 4 8 2 9 1 10 13 11 14 12 11 13
REMARK SMILES IDX 12 14
REMARK H PARENT
ROOT
ATOM      1  C   UNL     1       9.792  27.737   8.770  1.00  0.00    +0.151 C 
ATOM      2  N   UNL     1       9.989  27.061   7.512  1.00  0.00    -0.328 N 
ATOM      3  C   UNL     1       9.240  27.227   6.378  1.00  0.00    +0.202 A 
ATOM      4  N   UNL     1       9.672  26.463   5.394  1.00  0.00    -0.218 NA
ATOM      5  C   UNL     1      10.731  25.791   5.926  1.00  0.00    +0.167 A 
ATOM      6  C   UNL     1      10.952  26.135   7.225  1.00  0.00    +0.152 A 
ATOM      7  C   UNL     1      11.996  25.580   8.012  1.00  0.00    +0.282 A 
ATOM      8  O   UNL     1      12.185  25.898   9.183  1.00  0.00    -0.267 OA
ATOM      9  N   UNL     1      12.766  24.649   7.310  1.00  0.00    -0.261 N 
ATOM     10  C   UNL     1      13.868  24.012   8.004  1.00  0.00    +0.159 C 
ATOM     11  C   UNL     1      12.570  24.266   5.967  1.00  0.00    +0.332 A 
ATOM     12  O   UNL     1      13.306  23.430   5.432  1.00  0.00    -0.247 OA
ATOM     13  N   UNL     1      11.516  24.868   5.279  1.00  0.00    -0.279 N 
ATOM     14  C   UNL     1      11.247  24.528   3.893  1.00  0.00    +0.157 C 
ENDROOT
TORSDOF 0
ENDMDL
MODEL 8
REMARK VINA RESULT:      -5.3      1.643      3.998
REMARK SMILES Cn1c(=O)c2c(ncn2C)n(C)c1=O
REMARK SMILES IDX 10 1 9 2 8 3 7 4 6 5 5 6 3 7 4 8 2 9 1 10 13 11 14 12 11 13
REMARK SMILES IDX 12 14
REMARK H PARENT
ROOT
ATOM      1  C   UNL     1      13.374  24.104   7.794  1.00  0.00    +0.151 C 
ATOM      2  N   UNL     1      12.399  24.549   6.830  1.00  0.00    -0.328 N 
ATOM      3  C   UNL     1      12.244  24.073   5.555  1.00  0.00    +0.202 A 
ATOM      4  N   UNL     1      11.264  24.687   4.922  1.00  0.00    -0.218 NA
ATOM      5  C   UNL     1      10.783  25.583   5.830  1.00  0.00    +0.167 A 
ATOM      6  C   UNL     1      11.458  25.523   7.011  1.00  0.00    +0.152 A 
ATOM      7  C   UNL     1      11.155  26.352   8.124  1.00  0.00    +0.282 A 
ATOM      8  O   UNL     1      11.772  26.291   9.184  1.00  0.00    -0.267 OA
ATOM      9  N   UNL     1      10.094  27.227   7.875  1.00  0.00    -0.261 N 
ATOM     10  C   UNL     1       9.686  28.125   8.937  1.00  0.00    +0.159 C 
ATOM     11  C   UNL     1       9.371  27.319   6.667  1.00  0.00    +0.332 A 
ATOM     12  O   UNL     1       8.446  28.128   6.542  1.00  0.00    -0.247 OA
ATOM     13  N   UNL     1       9.746  26.462   5.632  1.00  0.00    -0.279 N 
ATOM     14  C   UNL     1       9.052  26.494   4.357  1.00  0.00    +0.157 C 
ENDROOT
TORSDOF 0
ENDMDL
MODEL 9
REMARK VINA RESULT:      -5.3      1.863      4.560
REMARK SMILES Cn1c(=O)c2c(ncn2C)n(C)c1=O
REMARK SMILES IDX 10 1 9 2 8 3 7 4 6 5 5 6 3 7 4 8 2 9 1 10 13 11 14 12 11 13
REMARK SMILES IDX 12 14
REMARK H PARENT
ROOT
ATOM      1  C   UNL     1       9.878  28.142   8.774  1.00  0.00    +0.151 C 
ATOM      2  N   UNL     1      10.293  26.912   8.149  1.00  0.00    -0.328 N 
ATOM      3  C   UNL     1      11.074  25.939   8.714  1.00  0.00    +0.202 A 
ATOM      4  N   UNL     1      11.278  24.935   7.883  1.00  0.00    -0.218 NA
ATOM      5  C   UNL     1      10.601  25.287   6.754  1.00  0.00    +0.167 A 
ATOM      6  C   UNL     1       9.986  26.494   6.885  1.00  0.00    +0.152 A 
ATOM      7  C   UNL     1       9.214  27.091   5.852  1.00  0.00    +0.282 A 
ATOM      8  O   UNL     1       8.664  28.182   5.980  1.00  0.00    -0.267 OA
ATOM      9  N   UNL     1       9.156  26.306   4.697  1.00  0.00    -0.261 N 
ATOM     10  C   UNL     1       8.394  26.805   3.569  1.00  0.00    +0.159 C 
ATOM     11  C   UNL     1       9.780  25.053   4.523  1.00  0.00    +0.332 A 
ATOM     12  O   UNL     1       9.670  24.432   3.460  1.00  0.00    -0.247 OA
ATOM     13  N   UNL     1      10.517  24.552   5.597  1.00  0.00    -0.279 N 
ATOM     14  C   UNL     1      11.189  23.269   5.498  1.00  0.00    +0.157 C 
ENDROOT
TORSDOF 0
ENDMDL
