MODEL 1
REMARK VINA RESULT:      -5.0      0.000      0.000
REMARK SMILES O=C(O)CC(O)(CC(=O)O)C(=O)O
REMARK SMILES IDX 5 1 4 2 2 3 1 4 3 5 6 7 7 9 8 10 9 11 10 12 11 14 12 15
REMARK SMILES IDX 13 16
REMARK H PARENT 3 6 6 8 10 13 13 17
ROOT
ATOM      1  C   UNL     1      14.106  23.984   5.371  1.00  0.00    +0.182 C 
ENDROOT
BRANCH   1   2
ATOM      2  C   UNL     1      14.176  23.884   6.900  1.00  0.00    +0.170 C 
BRANCH   2   3
ATOM      3  C   UNL     1      15.416  23.188   7.397  1.00  0.00    +0.306 C 
ATOM      4  O   UNL     1      15.406  22.044   7.829  1.00  0.00    -0.252 OA
BRANCH   3   5
ATOM      5  O   UNL     1      16.541  23.929   7.343  1.00  0.00    -0.481 OA
ATOM      6  H   UNL     1      16.945  24.164   8.209  1.00  0.00    +0.296 HD
ENDBRANCH   3   5
ENDBRANCH   2   3
ENDBRANCH   1   2
BRANCH   1   7
ATOM      7  O   UNL     1      15.361  24.360   4.777  1.00  0.00    -0.377 OA
ATOM      8  H   UNL     1      15.971  23.592   4.875  1.00  0.00    +0.212 HD
ENDBRANCH   1   7
BRANCH   1   9
ATOM      9  C   UNL     1      13.601  22.700   4.694  1.00  0.00    +0.170 C 
BRANCH   9  10
ATOM     10  C   UNL     1      14.680  22.001   3.916  1.00  0.00    +0.306 C 
ATOM     11  O   UNL     1      15.611  21.402   4.429  1.00  0.00    -0.252 OA
BRANCH  10  12
ATOM     12  O   UNL     1      14.539  22.125   2.580  1.00  0.00    -0.481 OA
ATOM     13  H   UNL     1      14.688  23.023   2.223  1.00  0.00    +0.296 HD
ENDBRANCH  10  12
ENDBRANCH   9  10
ENDBRANCH   1   9
BRANCH   1  14
ATOM     14  C   UNL     1      13.093  25.064   4.991  1.00  0.00    +0.336 C 
ATOM     15  O   UNL     1      12.632  25.868   5.792  1.00  0.00    -0.249 OA
BRANCH  14  16
ATOM     16  O   UNL     1      12.749  25.013   3.686  1.00  0.00    -0.479 OA
ATOM     17  H   UNL     1      12.222  25.824   3.475  1.00  0.00    +0.296 HD
ENDBRANCH  14  16
ENDBRANCH   1  14
TORSDOF 9
ENDMDL
MODEL 2
REMARK VINA RESULT:      -5.0      1.637      4.732
REMARK SMILES O=C(O)CC(O)(CC(=O)O)C(=O)O
REMARK SMILES IDX 5 1 4 2 2 3 1 4 3 5 6 7 7 9 8 10 9 11 10 12 11 14 12 15
REMARK SMILES IDX 13 16
REMARK H PARENT 3 6 6 8 10 13 13 17
ROOT
ATOM      1  C   UNL     1      13.655  24.170   5.274  1.00  0.00    +0.182 C 
ENDROOT
BRANCH   1   2
ATOM      2  C   UNL     1      12.782  23.454   4.235  1.00  0.00    +0.170 C 
BRANCH   2   3
ATOM      3  C   UNL     1      11.674  24.317   3.689  1.00  0.00    +0.306 C 
ATOM      4  O   UNL     1      10.532  24.281   4.124  1.00  0.00    -0.252 OA
BRANCH   3   5
ATOM      5  O   UNL     1      12.034  25.124   2.671  1.00  0.00    -0.481 OA
ATOM      6  H   UNL     1      11.323  25.357   2.033  1.00  0.00    +0.296 HD
ENDBRANCH   3   5
ENDBRANCH   2   3
ENDBRANCH   1   2
BRANCH   1   7
ATOM      7  O   UNL     1      13.762  25.584   5.035  1.00  0.00    -0.377 OA
ATOM      8  H   UNL     1      14.262  25.969   5.791  1.00  0.00    +0.212 HD
ENDBRANCH   1   7
BRANCH   1   9
ATOM      9  C   UNL     1      13.195  23.944   6.722  1.00  0.00    +0.170 C 
BRANCH   9  10
ATOM     10  C   UNL     1      12.594  25.180   7.331  1.00  0.00    +0.306 C 
ATOM     11  O   UNL     1      11.479  25.599   7.064  1.00  0.00    -0.252 OA
BRANCH  10  12
ATOM     12  O   UNL     1      13.424  25.808   8.189  1.00  0.00    -0.481 OA
ATOM     13  H   UNL     1      12.997  26.439   8.800  1.00  0.00    +0.296 HD
ENDBRANCH  10  12
ENDBRANCH   9  10
ENDBRANCH   1   9
BRANCH   1  14
ATOM     14  C   UNL     1      15.072  23.599   5.208  1.00  0.00    +0.336 C 
ATOM     15  O   UNL     1      15.466  22.877   4.300  1.00  0.00    -0.249 OA
BRANCH  14  16
ATOM     16  O   UNL     1      15.823  23.958   6.272  1.00  0.00    -0.479 OA
ATOM     17  H   UNL     1      15.232  24.408   6.927  1.00  0.00    +0.296 HD
ENDBRANCH  14  16
ENDBRANCH   1  14
TORSDOF 9
ENDMDL
MODEL 3
REMARK VINA RESULT:      -4.9      1.953      3.477
REMARK SMILES O=C(O)CC(O)(CC(=O)O)C(=O)O
REMARK SMILES IDX 5 1 4 2 2 3 1 4 3 5 6 7 7 9 8 10 9 11 10 12 11 14 12 15
REMARK SMILES IDX 13 16
REMARK H PARENT 3 6 6 8 10 13 13 17
ROOT
ATOM      1  C   UNL     1      13.174  24.191   6.495  1.00  0.00    +0.182 C 
ENDROOT
BRANCH   1   2
ATOM      2  C   UNL     1      11.819  23.561   6.841  1.00  0.00    +0.170 C 
BRANCH   2   3
ATOM      3  C   UNL     1      11.678  22.142   6.353  1.00  0.00    +0.306 C 
ATOM      4  O   UNL     1      11.936  21.173   7.052  1.00  0.00    -0.252 OA
BRANCH   3   5
ATOM      5  O   UNL     1      11.259  22.021   5.078  1.00  0.00    -0.481 OA
ATOM      6  H   UNL     1      10.774  21.193   4.859  1.00  0.00    +0.296 HD
ENDBRANCH   3   5
ENDBRANCH   2   3
ENDBRANCH   1   2
BRANCH   1   7
ATOM      7  O   UNL     1      13.572  25.211   7.429  1.00  0.00    -0.377 OA
ATOM      8  H   UNL     1      14.273  24.823   8.001  1.00  0.00    +0.212 HD
ENDBRANCH   1   7
BRANCH   1   9
ATOM      9  C   UNL     1      14.311  23.167   6.363  1.00  0.00    +0.170 C 
BRANCH   9  10
ATOM     10  C   UNL     1      15.281  23.239   7.509  1.00  0.00    +0.306 C 
ATOM     11  O   UNL     1      15.063  22.778   8.618  1.00  0.00    -0.252 OA
BRANCH  10  12
ATOM     12  O   UNL     1      16.419  23.895   7.203  1.00  0.00    -0.481 OA
ATOM     13  H   UNL     1      16.954  24.188   7.966  1.00  0.00    +0.296 HD
ENDBRANCH  10  12
ENDBRANCH   9  10
ENDBRANCH   1   9
BRANCH   1  14
ATOM     14  C   UNL     1      13.073  24.859   5.123  1.00  0.00    +0.336 C 
ATOM     15  O   UNL     1      12.015  25.020   4.527  1.00  0.00    -0.249 OA
BRANCH  14  16
ATOM     16  O   UNL     1      14.279  25.224   4.637  1.00  0.00    -0.479 OA
ATOM     17  H   UNL     1      14.245  26.190   4.422  1.00  0.00    +0.296 HD
ENDBRANCH  14  16
ENDBRANCH   1  14
TORSDOF 9
ENDMDL
MODEL 4
REMARK VINA RESULT:      -4.9      1.671      2.897
REMARK SMILES O=C(O)CC(O)(CC(=O)O)C(=O)O
REMARK SMILES IDX 5 1 4 2 2 3 1 4 3 5 6 7 7 9 8 10 9 11 10 12 11 14 12 15
REMARK SMILES IDX 13 16
REMARK H PARENT 3 6 6 8 10 13 13 17
ROOT
ATOM      1  C   UNL     1      12.885  24.767   5.730  1.00  0.00    +0.182 C 
ENDROOT
BRANCH   1   2
ATOM      2  C   UNL     1      13.610  23.438   5.975  1.00  0.00    +0.170 C 
BRANCH   2   3
ATOM      3  C   UNL     1      15.049  23.450   5.527  1.00  0.00    +0.306 C 
ATOM      4  O   UNL     1      15.406  23.033   4.435  1.00  0.00    -0.252 OA
BRANCH   3   5
ATOM      5  O   UNL     1      15.919  23.945   6.430  1.00  0.00    -0.481 OA
ATOM      6  H   UNL     1      15.661  23.851   7.375  1.00  0.00    +0.296 HD
ENDBRANCH   3   5
ENDBRANCH   2   3
ENDBRANCH   1   2
BRANCH   1   7
ATOM      7  O   UNL     1      13.702  25.731   5.041  1.00  0.00    -0.377 OA
ATOM      8  H   UNL     1      14.635  25.421   5.107  1.00  0.00    +0.212 HD
ENDBRANCH   1   7
BRANCH   1   9
ATOM      9  C   UNL     1      11.556  24.612   4.975  1.00  0.00    +0.170 C 
BRANCH   9  10
ATOM     10  C   UNL     1      11.752  24.127   3.566  1.00  0.00    +0.306 C 
ATOM     11  O   UNL     1      11.581  22.971   3.213  1.00  0.00    -0.252 OA
BRANCH  10  12
ATOM     12  O   UNL     1      12.169  25.094   2.723  1.00  0.00    -0.481 OA
ATOM     13  H   UNL     1      11.507  25.399   2.074  1.00  0.00    +0.296 HD
ENDBRANCH  10  12
ENDBRANCH   9  10
ENDBRANCH   1   9
BRANCH   1  14
ATOM     14  C   UNL     1      12.512  25.384   7.079  1.00  0.00    +0.336 C 
ATOM     15  O   UNL     1      11.415  25.875   7.315  1.00  0.00    -0.249 OA
BRANCH  14  16
ATOM     16  O   UNL     1      13.533  25.349   7.962  1.00  0.00    -0.479 OA
ATOM     17  H   UNL     1      13.165  25.104   8.848  1.00  0.00    +0.296 HD
ENDBRANCH  14  16
ENDBRANCH   1  14
TORSDOF 9
ENDMDL
MODEL 5
REMARK VINA RESULT:      -4.9      1.752      2.803
REMARK SMILES O=C(O)CC(O)(CC(=O)O)C(=O)O
REMARK SMILES IDX 5 1 4 2 2 3 1 4 3 5 6 7 7 9 8 10 9 11 10 12 11 14 12 15
REMARK SMILES IDX 13 16
REMARK H PARENT 3 6 6 8 10 13 13 17
ROOT
ATOM      1  C   UNL     1      12.676  24.558   5.331  1.00  0.00    +0.182 C 
ENDROOT
BRANCH   1   2
ATOM      2  C   UNL     1      11.877  24.423   6.633  1.00  0.00    +0.170 C 
BRANCH   2   3
ATOM      3  C   UNL     1      12.334  25.369   7.714  1.00  0.00    +0.306 C 
ATOM      4  O   UNL     1      11.598  26.208   8.214  1.00  0.00    -0.252 OA
BRANCH   3   5
ATOM      5  O   UNL     1      13.624  25.232   8.079  1.00  0.00    -0.481 OA
ATOM      6  H   UNL     1      14.293  25.503   7.411  1.00  0.00    +0.296 HD
ENDBRANCH   3   5
ENDBRANCH   2   3
ENDBRANCH   1   2
BRANCH   1   7
ATOM      7  O   UNL     1      13.549  25.701   5.325  1.00  0.00    -0.377 OA
ATOM      8  H   UNL     1      14.458  25.375   5.521  1.00  0.00    +0.212 HD
ENDBRANCH   1   7
BRANCH   1   9
ATOM      9  C   UNL     1      13.496  23.306   4.981  1.00  0.00    +0.170 C 
BRANCH   9  10
ATOM     10  C   UNL     1      14.945  23.449   5.351  1.00  0.00    +0.306 C 
ATOM     11  O   UNL     1      15.360  23.439   6.499  1.00  0.00    -0.252 OA
BRANCH  10  12
ATOM     12  O   UNL     1      15.752  23.622   4.285  1.00  0.00    -0.481 OA
ATOM     13  H   UNL     1      16.655  23.258   4.377  1.00  0.00    +0.296 HD
ENDBRANCH  10  12
ENDBRANCH   9  10
ENDBRANCH   1   9
BRANCH   1  14
ATOM     14  C   UNL     1      11.700  24.738   4.168  1.00  0.00    +0.336 C 
ATOM     15  O   UNL     1      10.487  24.612   4.280  1.00  0.00    -0.249 OA
BRANCH  14  16
ATOM     16  O   UNL     1      12.328  25.022   3.006  1.00  0.00    -0.479 OA
ATOM     17  H   UNL     1      13.286  25.173   3.204  1.00  0.00    +0.296 HD
ENDBRANCH  14  16
ENDBRANCH   1  14
TORSDOF 9
ENDMDL
MODEL 6
REMARK VINA RESULT:      -4.8      5.560      7.312
REMARK SMILES O=C(O)CC(O)(CC(=O)O)C(=O)O
REMARK SMILES IDX 5 1 4 2 2 3 1 4 3 5 6 7 7 9 8 10 9 11 10 12 11 14 12 15
REMARK SMILES IDX 13 16
REMARK H PARENT 3 6 6 8 10 13 13 17
ROOT
ATOM      1  C   UNL     1      17.913  17.674   4.121  1.00  0.00    +0.182 C 
ENDROOT
BRANCH   1   2
ATOM      2  C   UNL     1      18.004  16.696   5.299  1.00  0.00    +0.170 C 
BRANCH   2   3
ATOM      3  C   UNL     1      19.413  16.259   5.604  1.00  0.00    +0.306 C 
ATOM      4  O   UNL     1      19.993  15.396   4.960  1.00  0.00    -0.252 OA
BRANCH   3   5
ATOM      5  O   UNL     1      19.985  16.882   6.653  1.00  0.00    -0.481 OA
ATOM      6  H   UNL     1      19.910  16.424   7.521  1.00  0.00    +0.296 HD
ENDBRANCH   3   5
ENDBRANCH   2   3
ENDBRANCH   1   2
BRANCH   1   7
ATOM      7  O   UNL     1      19.079  17.647   3.279  1.00  0.00    -0.377 OA
ATOM      8  H   UNL     1      19.814  18.062   3.787  1.00  0.00    +0.212 HD
ENDBRANCH   1   7
BRANCH   1   9
ATOM      9  C   UNL     1      16.665  17.470   3.248  1.00  0.00    +0.170 C 
BRANCH   9  10
ATOM     10  C   UNL     1      16.963  17.611   1.781  1.00  0.00    +0.306 C 
ATOM     11  O   UNL     1      17.266  16.679   1.054  1.00  0.00    -0.252 OA
BRANCH  10  12
ATOM     12  O   UNL     1      16.894  18.885   1.344  1.00  0.00    -0.481 OA
ATOM     13  H   UNL     1      17.457  19.524   1.822  1.00  0.00    +0.296 HD
ENDBRANCH  10  12
ENDBRANCH   9  10
ENDBRANCH   1   9
BRANCH   1  14
ATOM     14  C   UNL     1      17.792  19.097   4.667  1.00  0.00    +0.336 C 
ATOM     15  O   UNL     1      16.810  19.807   4.489  1.00  0.00    -0.249 OA
BRANCH  14  16
ATOM     16  O   UNL     1      18.896  19.487   5.340  1.00  0.00    -0.479 OA
ATOM     17  H   UNL     1      19.663  18.958   5.006  1.00  0.00    +0.296 HD
ENDBRANCH  14  16
ENDBRANCH   1  14
TORSDOF 9
ENDMDL
MODEL 7
REMARK VINA RESULT:      -4.8      1.069      3.854
REMARK SMILES O=C(O)CC(O)(CC(=O)O)C(=O)O
REMARK SMILES IDX 5 1 4 2 2 3 1 4 3 5 6 7 7 9 8 10 9 11 10 12 11 14 12 15
REMARK SMILES IDX 13 16
REMARK H PARENT 3 6 6 8 10 13 13 17
ROOT
ATOM      1  C   UNL     1      14.671  23.031   5.484  1.00  0.00    +0.182 C 
ENDROOT
BRANCH   1   2
ATOM      2  C   UNL     1      13.282  23.580   5.137  1.00  0.00    +0.170 C 
BRANCH   2   3
ATOM      3  C   UNL     1      13.185  25.079   5.263  1.00  0.00    +0.306 C 
ATOM      4  O   UNL     1      12.471  25.630   6.089  1.00  0.00    -0.252 OA
BRANCH   3   5
ATOM      5  O   UNL     1      13.935  25.771   4.382  1.00  0.00    -0.481 OA
ATOM      6  H   UNL     1      14.691  25.284   3.983  1.00  0.00    +0.296 HD
ENDBRANCH   3   5
ENDBRANCH   2   3
ENDBRANCH   1   2
BRANCH   1   7
ATOM      7  O   UNL     1      15.680  24.055   5.544  1.00  0.00    -0.377 OA
ATOM      8  H   UNL     1      15.323  24.781   6.106  1.00  0.00    +0.212 HD
ENDBRANCH   1   7
BRANCH   1   9
ATOM      9  C   UNL     1      14.704  22.225   6.792  1.00  0.00    +0.170 C 
BRANCH   9  10
ATOM     10  C   UNL     1      15.874  22.592   7.661  1.00  0.00    +0.306 C 
ATOM     11  O   UNL     1      15.846  23.471   8.507  1.00  0.00    -0.252 OA
BRANCH  10  12
ATOM     12  O   UNL     1      16.982  21.869   7.395  1.00  0.00    -0.481 OA
ATOM     13  H   UNL     1      17.602  21.761   8.141  1.00  0.00    +0.296 HD
ENDBRANCH  10  12
ENDBRANCH   9  10
ENDBRANCH   1   9
BRANCH   1  14
ATOM     14  C   UNL     1      15.101  22.047   4.395  1.00  0.00    +0.336 C 
ATOM     15  O   UNL     1      15.942  21.173   4.570  1.00  0.00    -0.249 OA
BRANCH  14  16
ATOM     16  O   UNL     1      14.472  22.270   3.221  1.00  0.00    -0.479 OA
ATOM     17  H   UNL     1      15.135  22.170   2.493  1.00  0.00    +0.296 HD
ENDBRANCH  14  16
ENDBRANCH   1  14
TORSDOF 9
ENDMDL
MODEL 8
REMARK VINA RESULT:      -4.7      1.979      3.746
REMARK SMILES O=C(O)CC(O)(CC(=O)O)C(=O)O
REMARK SMILES IDX 5 1 4 2 2 3 1 4 3 5 6 7 7 9 8 10 9 11 10 12 11 14 12 15
REMARK SMILES IDX 13 16
REMARK H PARENT 3 6 6 8 10 13 13 17
ROOT
ATOM      1  C   UNL     1      13.568  23.324   5.120  1.00  0.00    +0.182 C 
ENDROOT
BRANCH   1   2
ATOM      2  C   UNL     1      13.379  22.945   6.594  1.00  0.00    +0.170 C 
BRANCH   2   3
ATOM      3  C   UNL     1      12.037  22.324   6.883  1.00  0.00    +0.306 C 
ATOM      4  O   UNL     1      11.876  21.118   7.001  1.00  0.00    -0.252 OA
BRANCH   3   5
ATOM      5  O   UNL     1      11.018  23.201   6.988  1.00  0.00    -0.481 OA
ATOM      6  H   UNL     1      11.268  24.152   7.014  1.00  0.00    +0.296 HD
ENDBRANCH   3   5
ENDBRANCH   2   3
ENDBRANCH   1   2
BRANCH   1   7
ATOM      7  O   UNL     1      12.843  22.464   4.223  1.00  0.00    -0.377 OA
ATOM      8  H   UNL     1      12.056  22.967   3.911  1.00  0.00    +0.212 HD
ENDBRANCH   1   7
BRANCH   1   9
ATOM      9  C   UNL     1      13.203  24.784   4.810  1.00  0.00    +0.170 C 
BRANCH   9  10
ATOM     10  C   UNL     1      11.916  24.902   4.043  1.00  0.00    +0.306 C 
ATOM     11  O   UNL     1      10.809  24.833   4.554  1.00  0.00    -0.252 OA
BRANCH  10  12
ATOM     12  O   UNL     1      12.099  25.063   2.717  1.00  0.00    -0.481 OA
ATOM     13  H   UNL     1      12.994  24.854   2.388  1.00  0.00    +0.296 HD
ENDBRANCH  10  12
ENDBRANCH   9  10
ENDBRANCH   1   9
BRANCH   1  14
ATOM     14  C   UNL     1      15.048  23.195   4.761  1.00  0.00    +0.336 C 
ATOM     15  O   UNL     1      15.585  22.127   4.491  1.00  0.00    -0.249 OA
BRANCH  14  16
ATOM     16  O   UNL     1      15.695  24.379   4.802  1.00  0.00    -0.479 OA
ATOM     17  H   UNL     1      15.869  24.602   5.751  1.00  0.00    +0.296 HD
ENDBRANCH  14  16
ENDBRANCH   1  14
TORSDOF 9
ENDMDL
MODEL 9
REMARK VINA RESULT:      -4.7      1.604      3.311
REMARK SMILES O=C(O)CC(O)(CC(=O)O)C(=O)O
REMARK SMILES IDX 5 1 4 2 2 3 1 4 3 5 6 7 7 9 8 10 9 11 10 12 11 14 12 15
REMARK SMILES IDX 13 16
REMARK H PARENT 3 6 6 8 10 13 13 17
ROOT
ATOM      1  C   UNL     1      14.174  22.429   4.696  1.00  0.00    +0.182 C 
ENDROOT
BRANCH   1   2
ATOM      2  C   UNL     1      14.558  21.068   5.292  1.00  0.00    +0.170 C 
BRANCH   2   3
ATOM      3  C   UNL     1      15.804  20.480   4.682  1.00  0.00    +0.306 C 
ATOM      4  O   UNL     1      15.797  19.862   3.627  1.00  0.00    -0.252 OA
BRANCH   3   5
ATOM      5  O   UNL     1      16.930  20.674   5.397  1.00  0.00    -0.481 OA
ATOM      6  H   UNL     1      17.585  21.298   5.010  1.00  0.00    +0.296 HD
ENDBRANCH   3   5
ENDBRANCH   2   3
ENDBRANCH   1   2
BRANCH   1   7
ATOM      7  O   UNL     1      14.449  22.521   3.287  1.00  0.00    -0.377 OA
ATOM      8  H   UNL     1      15.421  22.402   3.173  1.00  0.00    +0.212 HD
ENDBRANCH   1   7
BRANCH   1   9
ATOM      9  C   UNL     1      12.707  22.815   4.942  1.00  0.00    +0.170 C 
BRANCH   9  10
ATOM     10  C   UNL     1      12.010  23.243   3.681  1.00  0.00    +0.306 C 
ATOM     11  O   UNL     1      11.274  22.520   3.030  1.00  0.00    -0.252 OA
BRANCH  10  12
ATOM     12  O   UNL     1      12.300  24.509   3.316  1.00  0.00    -0.481 OA
ATOM     13  H   UNL     1      13.070  24.910   3.765  1.00  0.00    +0.296 HD
ENDBRANCH  10  12
ENDBRANCH   9  10
ENDBRANCH   1   9
BRANCH   1  14
ATOM     14  C   UNL     1      14.997  23.519   5.382  1.00  0.00    +0.336 C 
ATOM     15  O   UNL     1      15.594  23.350   6.439  1.00  0.00    -0.249 OA
BRANCH  14  16
ATOM     16  O   UNL     1      14.968  24.689   4.709  1.00  0.00    -0.479 OA
ATOM     17  H   UNL     1      15.182  24.504   3.760  1.00  0.00    +0.296 HD
ENDBRANCH  14  16
ENDBRANCH   1  14
TORSDOF 9
ENDMDL
