MODEL 1
REMARK VINA RESULT:      -6.1      0.000      0.000
REMARK SMILES O=C(O)CN(CCOCCOCCN(CC(=O)O)CC(=O)O)CC(=O)O
REMARK SMILES IDX 9 1 8 2 7 3 6 4 5 5 4 6 2 7 1 8 3 9 23 11 24 12 25 13 26 14
REMARK SMILES IDX 10 16 11 17 12 18 13 19 14 20 15 21 16 22 17 23 18 24 19 26
REMARK SMILES IDX 20 27 21 28 22 29
REMARK H PARENT 3 10 26 15 18 25 22 30
ROOT
ATOM      1  C   UNL     1      14.601  23.510   5.507  1.00  0.00    +0.188 C 
ENDROOT
BRANCH   1   2
ATOM      2  O   UNL     1      14.761  22.695   4.331  1.00  0.00    -0.378 OA
BRANCH   2   3
ATOM      3  C   UNL     1      14.531  21.301   4.609  1.00  0.00    +0.175 C 
BRANCH   3   4
ATOM      4  C   UNL     1      14.923  20.417   3.397  1.00  0.00    +0.114 C 
BRANCH   4   5
ATOM      5  N   UNL     1      16.096  19.503   3.564  1.00  0.00    -0.280 NA
BRANCH   5   6
ATOM      6  C   UNL     1      16.290  19.287   5.045  1.00  0.00    +0.208 C 
BRANCH   6   7
ATOM      7  C   UNL     1      17.686  19.696   5.517  1.00  0.00    +0.317 C 
ATOM      8  O   UNL     1      18.729  19.336   5.001  1.00  0.00    -0.251 OA
BRANCH   7   9
ATOM      9  O   UNL     1      17.641  20.478   6.628  1.00  0.00    -0.480 OA
ATOM     10  H   UNL     1      16.937  21.150   6.501  1.00  0.00    +0.296 HD
ENDBRANCH   7   9
ENDBRANCH   6   7
ENDBRANCH   5   6
BRANCH   5  11
ATOM     11  C   UNL     1      15.929  18.193   2.868  1.00  0.00    +0.208 C 
BRANCH  11  12
ATOM     12  C   UNL     1      17.131  17.779   2.035  1.00  0.00    +0.317 C 
ATOM     13  O   UNL     1      17.145  16.835   1.261  1.00  0.00    -0.251 OA
BRANCH  12  14
ATOM     14  O   UNL     1      18.180  18.607   2.168  1.00  0.00    -0.480 OA
ATOM     15  H   UNL     1      18.776  18.585   1.379  1.00  0.00    +0.296 HD
ENDBRANCH  12  14
ENDBRANCH  11  12
ENDBRANCH   5  11
ENDBRANCH   4   5
ENDBRANCH   3   4
ENDBRANCH   2   3
ENDBRANCH   1   2
BRANCH   1  16
ATOM     16  C   UNL     1      13.494  24.546   5.268  1.00  0.00    +0.188 C 
BRANCH  16  17
ATOM     17  O   UNL     1      12.288  23.911   4.795  1.00  0.00    -0.378 OA
BRANCH  17  18
ATOM     18  C   UNL     1      11.206  24.866   4.738  1.00  0.00    +0.175 C 
BRANCH  18  19
ATOM     19  C   UNL     1      11.126  25.749   6.012  1.00  0.00    +0.114 C 
BRANCH  19  20
ATOM     20  N   UNL     1       9.929  26.630   6.081  1.00  0.00    -0.280 NA
BRANCH  20  21
ATOM     21  C   UNL     1       8.833  26.151   5.203  1.00  0.00    +0.208 C 
BRANCH  21  22
ATOM     22  C   UNL     1       8.246  27.193   4.254  1.00  0.00    +0.317 C 
ATOM     23  O   UNL     1       7.160  27.083   3.700  1.00  0.00    -0.251 OA
BRANCH  22  24
ATOM     24  O   UNL     1       9.068  28.247   4.024  1.00  0.00    -0.480 OA
ATOM     25  H   UNL     1       8.950  28.626   3.122  1.00  0.00    +0.296 HD
ENDBRANCH  22  24
ENDBRANCH  21  22
ENDBRANCH  20  21
BRANCH  20  26
ATOM     26  C   UNL     1       9.396  26.756   7.471  1.00  0.00    +0.208 C 
BRANCH  26  27
ATOM     27  C   UNL     1       9.206  28.225   7.840  1.00  0.00    +0.317 C 
ATOM     28  O   UNL     1       8.258  28.914   7.499  1.00  0.00    -0.251 OA
BRANCH  27  29
ATOM     29  O   UNL     1      10.248  28.707   8.568  1.00  0.00    -0.480 OA
ATOM     30  H   UNL     1       9.889  28.978   9.444  1.00  0.00    +0.296 HD
ENDBRANCH  27  29
ENDBRANCH  26  27
ENDBRANCH  20  26
ENDBRANCH  19  20
ENDBRANCH  18  19
ENDBRANCH  17  18
ENDBRANCH  16  17
ENDBRANCH   1  16
TORSDOF 21
ENDMDL
MODEL 2
REMARK VINA RESULT:      -6.0      0.950     10.930
REMARK SMILES O=C(O)CN(CCOCCOCCN(CC(=O)O)CC(=O)O)CC(=O)O
REMARK SMILES IDX 9 1 8 2 7 3 6 4 5 5 4 6 2 7 1 8 3 9 23 11 24 12 25 13 26 14
REMARK SMILES IDX 10 16 11 17 12 18 13 19 14 20 15 21 16 22 17 23 18 24 19 26
REMARK SMILES IDX 20 27 21 28 22 29
REMARK H PARENT 3 10 26 15 18 25 22 30
ROOT
ATOM      1  C   UNL     1      12.207  22.282   6.163  1.00  0.00    +0.188 C 
ENDROOT
BRANCH   1   2
ATOM      2  O   UNL     1      12.555  23.619   6.569  1.00  0.00    -0.378 OA
BRANCH   2   3
ATOM      3  C   UNL     1      11.388  24.415   6.850  1.00  0.00    +0.175 C 
BRANCH   3   4
ATOM      4  C   UNL     1      11.175  25.499   5.762  1.00  0.00    +0.114 C 
BRANCH   4   5
ATOM      5  N   UNL     1      10.137  26.543   6.026  1.00  0.00    -0.280 NA
BRANCH   5   6
ATOM      6  C   UNL     1       8.889  26.135   5.282  1.00  0.00    +0.208 C 
BRANCH   6   7
ATOM      7  C   UNL     1       8.544  27.102   4.148  1.00  0.00    +0.317 C 
ATOM      8  O   UNL     1       7.864  26.822   3.177  1.00  0.00    -0.251 OA
BRANCH   7   9
ATOM      9  O   UNL     1       9.131  28.317   4.315  1.00  0.00    -0.480 OA
ATOM     10  H   UNL     1       9.484  28.362   5.231  1.00  0.00    +0.296 HD
ENDBRANCH   7   9
ENDBRANCH   6   7
ENDBRANCH   5   6
BRANCH   5  11
ATOM     11  C   UNL     1       9.837  26.725   7.478  1.00  0.00    +0.208 C 
BRANCH  11  12
ATOM     12  C   UNL     1       9.458  28.146   7.857  1.00  0.00    +0.317 C 
ATOM     13  O   UNL     1       8.563  28.789   7.329  1.00  0.00    -0.251 OA
BRANCH  12  14
ATOM     14  O   UNL     1      10.158  28.623   8.899  1.00  0.00    -0.480 OA
ATOM     15  H   UNL     1       9.802  29.486   9.226  1.00  0.00    +0.296 HD
ENDBRANCH  12  14
ENDBRANCH  11  12
ENDBRANCH   5  11
ENDBRANCH   4   5
ENDBRANCH   3   4
ENDBRANCH   2   3
ENDBRANCH   1   2
BRANCH   1  16
ATOM     16  C   UNL     1      12.495  22.109   4.666  1.00  0.00    +0.188 C 
BRANCH  16  17
ATOM     17  O   UNL     1      13.812  22.596   4.335  1.00  0.00    -0.378 OA
BRANCH  17  18
ATOM     18  C   UNL     1      14.799  21.562   4.546  1.00  0.00    +0.175 C 
BRANCH  18  19
ATOM     19  C   UNL     1      14.901  20.585   3.343  1.00  0.00    +0.114 C 
BRANCH  19  20
ATOM     20  N   UNL     1      15.951  19.539   3.481  1.00  0.00    -0.280 NA
BRANCH  20  21
ATOM     21  C   UNL     1      16.063  19.044   4.875  1.00  0.00    +0.208 C 
BRANCH  21  22
ATOM     22  C   UNL     1      17.413  19.273   5.550  1.00  0.00    +0.317 C 
ATOM     23  O   UNL     1      18.471  19.391   4.948  1.00  0.00    -0.251 OA
BRANCH  22  24
ATOM     24  O   UNL     1      17.351  19.279   6.906  1.00  0.00    -0.480 OA
ATOM     25  H   UNL     1      16.745  19.977   7.250  1.00  0.00    +0.296 HD
ENDBRANCH  22  24
ENDBRANCH  21  22
ENDBRANCH  20  21
BRANCH  20  26
ATOM     26  C   UNL     1      15.708  18.370   2.585  1.00  0.00    +0.208 C 
BRANCH  26  27
ATOM     27  C   UNL     1      17.014  17.910   1.940  1.00  0.00    +0.317 C 
ATOM     28  O   UNL     1      17.178  16.838   1.381  1.00  0.00    -0.251 OA
BRANCH  27  29
ATOM     29  O   UNL     1      18.008  18.824   2.096  1.00  0.00    -0.480 OA
ATOM     30  H   UNL     1      17.607  19.714   1.966  1.00  0.00    +0.296 HD
ENDBRANCH  27  29
ENDBRANCH  26  27
ENDBRANCH  20  26
ENDBRANCH  19  20
ENDBRANCH  18  19
ENDBRANCH  17  18
ENDBRANCH  16  17
ENDBRANCH   1  16
TORSDOF 21
ENDMDL
MODEL 3
REMARK VINA RESULT:      -5.8      1.625      2.596
REMARK SMILES O=C(O)CN(CCOCCOCCN(CC(=O)O)CC(=O)O)CC(=O)O
REMARK SMILES IDX 9 1 8 2 7 3 6 4 5 5 4 6 2 7 1 8 3 9 23 11 24 12 25 13 26 14
REMARK SMILES IDX 10 16 11 17 12 18 13 19 14 20 15 21 16 22 17 23 18 24 19 26
REMARK SMILES IDX 20 27 21 28 22 29
REMARK H PARENT 3 10 26 15 18 25 22 30
ROOT
ATOM      1  C   UNL     1      14.157  23.423   5.836  1.00  0.00    +0.188 C 
ENDROOT
BRANCH   1   2
ATOM      2  O   UNL     1      13.924  22.685   4.622  1.00  0.00    -0.378 OA
BRANCH   2   3
ATOM      3  C   UNL     1      15.099  21.972   4.194  1.00  0.00    +0.175 C 
BRANCH   3   4
ATOM      4  C   UNL     1      15.202  20.591   4.894  1.00  0.00    +0.114 C 
BRANCH   4   5
ATOM      5  N   UNL     1      16.550  19.944   4.943  1.00  0.00    -0.280 NA
BRANCH   5   6
ATOM      6  C   UNL     1      16.902  19.748   6.396  1.00  0.00    +0.208 C 
BRANCH   6   7
ATOM      7  C   UNL     1      18.412  19.658   6.624  1.00  0.00    +0.317 C 
ATOM      8  O   UNL     1      18.940  19.206   7.624  1.00  0.00    -0.251 OA
BRANCH   7   9
ATOM      9  O   UNL     1      19.117  20.197   5.594  1.00  0.00    -0.480 OA
ATOM     10  H   UNL     1      19.870  20.703   5.970  1.00  0.00    +0.296 HD
ENDBRANCH   7   9
ENDBRANCH   6   7
ENDBRANCH   5   6
BRANCH   5  11
ATOM     11  C   UNL     1      16.606  18.639   4.217  1.00  0.00    +0.208 C 
BRANCH  11  12
ATOM     12  C   UNL     1      17.229  18.729   2.834  1.00  0.00    +0.317 C 
ATOM     13  O   UNL     1      18.410  18.533   2.593  1.00  0.00    -0.251 OA
BRANCH  12  14
ATOM     14  O   UNL     1      16.334  18.973   1.862  1.00  0.00    -0.480 OA
ATOM     15  H   UNL     1      15.465  18.532   2.035  1.00  0.00    +0.296 HD
ENDBRANCH  12  14
ENDBRANCH  11  12
ENDBRANCH   5  11
ENDBRANCH   4   5
ENDBRANCH   3   4
ENDBRANCH   2   3
ENDBRANCH   1   2
BRANCH   1  16
ATOM     16  C   UNL     1      12.813  23.826   6.458  1.00  0.00    +0.188 C 
BRANCH  16  17
ATOM     17  O   UNL     1      12.674  25.262   6.495  1.00  0.00    -0.378 OA
BRANCH  17  18
ATOM     18  C   UNL     1      11.333  25.627   6.890  1.00  0.00    +0.175 C 
BRANCH  18  19
ATOM     19  C   UNL     1      10.248  24.861   6.085  1.00  0.00    +0.114 C 
BRANCH  19  20
ATOM     20  N   UNL     1       9.925  25.456   4.759  1.00  0.00    -0.280 NA
BRANCH  20  21
ATOM     21  C   UNL     1      10.004  24.457   3.666  1.00  0.00    +0.208 C 
BRANCH  21  22
ATOM     22  C   UNL     1      11.286  24.485   2.838  1.00  0.00    +0.317 C 
ATOM     23  O   UNL     1      11.418  23.927   1.757  1.00  0.00    -0.251 OA
BRANCH  22  24
ATOM     24  O   UNL     1      12.308  25.146   3.437  1.00  0.00    -0.480 OA
ATOM     25  H   UNL     1      12.336  26.099   3.188  1.00  0.00    +0.296 HD
ENDBRANCH  22  24
ENDBRANCH  21  22
ENDBRANCH  20  21
BRANCH  20  26
ATOM     26  C   UNL     1       8.566  26.076   4.732  1.00  0.00    +0.208 C 
BRANCH  26  27
ATOM     27  C   UNL     1       8.664  27.586   4.933  1.00  0.00    +0.317 C 
ATOM     28  O   UNL     1       8.458  28.166   5.987  1.00  0.00    -0.251 OA
BRANCH  27  29
ATOM     29  O   UNL     1       8.971  28.235   3.778  1.00  0.00    -0.480 OA
ATOM     30  H   UNL     1       9.457  27.597   3.207  1.00  0.00    +0.296 HD
ENDBRANCH  27  29
ENDBRANCH  26  27
ENDBRANCH  20  26
ENDBRANCH  19  20
ENDBRANCH  18  19
ENDBRANCH  17  18
ENDBRANCH  16  17
ENDBRANCH   1  16
TORSDOF 21
ENDMDL
MODEL 4
REMARK VINA RESULT:      -5.8      1.799      2.259
REMARK SMILES O=C(O)CN(CCOCCOCCN(CC(=O)O)CC(=O)O)CC(=O)O
REMARK SMILES IDX 9 1 8 2 7 3 6 4 5 5 4 6 2 7 1 8 3 9 23 11 24 12 25 13 26 14
REMARK SMILES IDX 10 16 11 17 12 18 13 19 14 20 15 21 16 22 17 23 18 24 19 26
REMARK SMILES IDX 20 27 21 28 22 29
REMARK H PARENT 3 10 26 15 18 25 22 30
ROOT
ATOM      1  C   UNL     1      13.439  21.926   7.105  1.00  0.00    +0.188 C 
ENDROOT
BRANCH   1   2
ATOM      2  O   UNL     1      13.600  21.795   5.681  1.00  0.00    -0.378 OA
BRANCH   2   3
ATOM      3  C   UNL     1      14.369  20.628   5.333  1.00  0.00    +0.175 C 
BRANCH   3   4
ATOM      4  C   UNL     1      15.697  21.021   4.634  1.00  0.00    +0.114 C 
BRANCH   4   5
ATOM      5  N   UNL     1      16.785  19.995   4.599  1.00  0.00    -0.280 NA
BRANCH   5   6
ATOM      6  C   UNL     1      16.977  19.495   6.009  1.00  0.00    +0.208 C 
BRANCH   6   7
ATOM      7  C   UNL     1      18.439  19.553   6.454  1.00  0.00    +0.317 C 
ATOM      8  O   UNL     1      18.866  19.104   7.503  1.00  0.00    -0.251 OA
BRANCH   7   9
ATOM      9  O   UNL     1      19.219  20.220   5.563  1.00  0.00    -0.480 OA
ATOM     10  H   UNL     1      18.778  20.188   4.686  1.00  0.00    +0.296 HD
ENDBRANCH   7   9
ENDBRANCH   6   7
ENDBRANCH   5   6
BRANCH   5  11
ATOM     11  C   UNL     1      16.492  18.854   3.681  1.00  0.00    +0.208 C 
BRANCH  11  12
ATOM     12  C   UNL     1      17.675  18.428   2.829  1.00  0.00    +0.317 C 
ATOM     13  O   UNL     1      18.816  18.295   3.245  1.00  0.00    -0.251 OA
BRANCH  12  14
ATOM     14  O   UNL     1      17.339  18.127   1.564  1.00  0.00    -0.480 OA
ATOM     15  H   UNL     1      16.713  17.363   1.515  1.00  0.00    +0.296 HD
ENDBRANCH  12  14
ENDBRANCH  11  12
ENDBRANCH   5  11
ENDBRANCH   4   5
ENDBRANCH   3   4
ENDBRANCH   2   3
ENDBRANCH   1   2
BRANCH   1  16
ATOM     16  C   UNL     1      14.577  22.783   7.674  1.00  0.00    +0.188 C 
BRANCH  16  17
ATOM     17  O   UNL     1      14.068  24.015   8.225  1.00  0.00    -0.378 OA
BRANCH  17  18
ATOM     18  C   UNL     1      12.919  24.465   7.474  1.00  0.00    +0.175 C 
BRANCH  18  19
ATOM     19  C   UNL     1      12.024  25.440   8.286  1.00  0.00    +0.114 C 
BRANCH  19  20
ATOM     20  N   UNL     1      10.796  25.890   7.576  1.00  0.00    -0.280 NA
BRANCH  20  21
ATOM     21  C   UNL     1      10.122  24.776   6.866  1.00  0.00    +0.208 C 
BRANCH  21  22
ATOM     22  C   UNL     1       9.796  25.031   5.397  1.00  0.00    +0.317 C 
ATOM     23  O   UNL     1       9.747  26.141   4.886  1.00  0.00    -0.251 OA
BRANCH  22  24
ATOM     24  O   UNL     1       9.503  23.903   4.700  1.00  0.00    -0.480 OA
ATOM     25  H   UNL     1       8.598  23.565   4.896  1.00  0.00    +0.296 HD
ENDBRANCH  22  24
ENDBRANCH  21  22
ENDBRANCH  20  21
BRANCH  20  26
ATOM     26  C   UNL     1       9.808  26.526   8.499  1.00  0.00    +0.208 C 
BRANCH  26  27
ATOM     27  C   UNL     1       9.670  28.015   8.191  1.00  0.00    +0.317 C 
ATOM     28  O   UNL     1       9.032  28.480   7.262  1.00  0.00    -0.251 OA
BRANCH  27  29
ATOM     29  O   UNL     1      10.384  28.783   9.057  1.00  0.00    -0.480 OA
ATOM     30  H   UNL     1      10.556  28.234   9.857  1.00  0.00    +0.296 HD
ENDBRANCH  27  29
ENDBRANCH  26  27
ENDBRANCH  20  26
ENDBRANCH  19  20
ENDBRANCH  18  19
ENDBRANCH  17  18
ENDBRANCH  16  17
ENDBRANCH   1  16
TORSDOF 21
ENDMDL
MODEL 5
REMARK VINA RESULT:      -5.8      2.395      8.851
REMARK SMILES O=C(O)CN(CCOCCOCCN(CC(=O)O)CC(=O)O)CC(=O)O
REMARK SMILES IDX 9 1 8 2 7 3 6 4 5 5 4 6 2 7 1 8 3 9 23 11 24 12 25 13 26 14
REMARK SMILES IDX 10 16 11 17 12 18 13 19 14 20 15 21 16 22 17 23 18 24 19 26
REMARK SMILES IDX 20 27 21 28 22 29
REMARK H PARENT 3 10 26 15 18 25 22 30
ROOT
ATOM      1  C   UNL     1      12.118  23.897   7.117  1.00  0.00    +0.188 C 
ENDROOT
BRANCH   1   2
ATOM      2  O   UNL     1      12.064  25.099   6.328  1.00  0.00    -0.378 OA
BRANCH   2   3
ATOM      3  C   UNL     1      10.932  25.919   6.676  1.00  0.00    +0.175 C 
BRANCH   3   4
ATOM      4  C   UNL     1       9.686  25.540   5.835  1.00  0.00    +0.114 C 
BRANCH   4   5
ATOM      5  N   UNL     1       9.744  25.807   4.364  1.00  0.00    -0.280 NA
BRANCH   5   6
ATOM      6  C   UNL     1       9.936  24.479   3.673  1.00  0.00    +0.208 C 
BRANCH   6   7
ATOM      7  C   UNL     1      11.179  24.459   2.783  1.00  0.00    +0.317 C 
ATOM      8  O   UNL     1      11.238  23.945   1.680  1.00  0.00    -0.251 OA
BRANCH   7   9
ATOM      9  O   UNL     1      12.250  25.038   3.388  1.00  0.00    -0.480 OA
ATOM     10  H   UNL     1      12.498  24.488   4.163  1.00  0.00    +0.296 HD
ENDBRANCH   7   9
ENDBRANCH   6   7
ENDBRANCH   5   6
BRANCH   5  11
ATOM     11  C   UNL     1       8.524  26.491   3.838  1.00  0.00    +0.208 C 
BRANCH  11  12
ATOM     12  C   UNL     1       8.662  26.984   2.408  1.00  0.00    +0.317 C 
ATOM     13  O   UNL     1       8.344  26.340   1.420  1.00  0.00    -0.251 OA
BRANCH  12  14
ATOM     14  O   UNL     1       9.101  28.251   2.322  1.00  0.00    -0.480 OA
ATOM     15  H   UNL     1       8.568  28.789   1.686  1.00  0.00    +0.296 HD
ENDBRANCH  12  14
ENDBRANCH  11  12
ENDBRANCH   5  11
ENDBRANCH   4   5
ENDBRANCH   3   4
ENDBRANCH   2   3
ENDBRANCH   1   2
BRANCH   1  16
ATOM     16  C   UNL     1      11.731  22.693   6.246  1.00  0.00    +0.188 C 
BRANCH  16  17
ATOM     17  O   UNL     1      11.928  21.456   6.962  1.00  0.00    -0.378 OA
BRANCH  17  18
ATOM     18  C   UNL     1      13.252  20.936   6.713  1.00  0.00    +0.175 C 
BRANCH  18  19
ATOM     19  C   UNL     1      13.653  21.024   5.216  1.00  0.00    +0.114 C 
BRANCH  19  20
ATOM     20  N   UNL     1      15.092  21.317   4.976  1.00  0.00    -0.280 NA
BRANCH  20  21
ATOM     21  C   UNL     1      15.754  20.248   4.188  1.00  0.00    +0.208 C 
BRANCH  21  22
ATOM     22  C   UNL     1      16.901  19.525   4.889  1.00  0.00    +0.317 C 
ATOM     23  O   UNL     1      17.061  18.313   4.874  1.00  0.00    -0.251 OA
BRANCH  22  24
ATOM     24  O   UNL     1      17.716  20.351   5.594  1.00  0.00    -0.480 OA
ATOM     25  H   UNL     1      18.089  21.074   5.037  1.00  0.00    +0.296 HD
ENDBRANCH  22  24
ENDBRANCH  21  22
ENDBRANCH  20  21
BRANCH  20  26
ATOM     26  C   UNL     1      15.297  22.617   4.269  1.00  0.00    +0.208 C 
BRANCH  26  27
ATOM     27  C   UNL     1      15.228  23.778   5.257  1.00  0.00    +0.317 C 
ATOM     28  O   UNL     1      15.618  23.737   6.413  1.00  0.00    -0.251 OA
BRANCH  27  29
ATOM     29  O   UNL     1      14.635  24.875   4.714  1.00  0.00    -0.480 OA
ATOM     30  H   UNL     1      15.149  25.113   3.908  1.00  0.00    +0.296 HD
ENDBRANCH  27  29
ENDBRANCH  26  27
ENDBRANCH  20  26
ENDBRANCH  19  20
ENDBRANCH  18  19
ENDBRANCH  17  18
ENDBRANCH  16  17
ENDBRANCH   1  16
TORSDOF 21
ENDMDL
MODEL 6
REMARK VINA RESULT:      -5.7      3.904      8.596
REMARK SMILES O=C(O)CN(CCOCCOCCN(CC(=O)O)CC(=O)O)CC(=O)O
REMARK SMILES IDX 9 1 8 2 7 3 6 4 5 5 4 6 2 7 1 8 3 9 23 11 24 12 25 13 26 14
REMARK SMILES IDX 10 16 11 17 12 18 13 19 14 20 15 21 16 22 17 23 18 24 19 26
REMARK SMILES IDX 20 27 21 28 22 29
REMARK H PARENT 3 10 26 15 18 25 22 30
ROOT
ATOM      1  C   UNL     1       9.539  27.839   7.749  1.00  0.00    +0.188 C 
ENDROOT
BRANCH   1   2
ATOM      2  O   UNL     1       8.863  27.955   6.484  1.00  0.00    -0.378 OA
BRANCH   2   3
ATOM      3  C   UNL     1       9.361  27.007   5.521  1.00  0.00    +0.175 C 
BRANCH   3   4
ATOM      4  C   UNL     1       8.216  26.465   4.626  1.00  0.00    +0.114 C 
BRANCH   4   5
ATOM      5  N   UNL     1       8.493  25.228   3.830  1.00  0.00    -0.280 NA
BRANCH   5   6
ATOM      6  C   UNL     1       7.301  24.993   2.936  1.00  0.00    +0.208 C 
BRANCH   6   7
ATOM      7  C   UNL     1       6.527  23.730   3.316  1.00  0.00    +0.317 C 
ATOM      8  O   UNL     1       5.361  23.516   3.034  1.00  0.00    -0.251 OA
BRANCH   7   9
ATOM      9  O   UNL     1       7.275  22.877   4.066  1.00  0.00    -0.480 OA
ATOM     10  H   UNL     1       7.408  22.053   3.549  1.00  0.00    +0.296 HD
ENDBRANCH   7   9
ENDBRANCH   6   7
ENDBRANCH   5   6
BRANCH   5  11
ATOM     11  C   UNL     1       9.742  25.316   3.015  1.00  0.00    +0.208 C 
BRANCH  11  12
ATOM     12  C   UNL     1      10.593  24.059   3.053  1.00  0.00    +0.317 C 
ATOM     13  O   UNL     1      10.278  23.026   3.623  1.00  0.00    -0.251 OA
BRANCH  12  14
ATOM     14  O   UNL     1      11.716  24.155   2.322  1.00  0.00    -0.480 OA
ATOM     15  H   UNL     1      11.929  23.312   1.851  1.00  0.00    +0.296 HD
ENDBRANCH  12  14
ENDBRANCH  11  12
ENDBRANCH   5  11
ENDBRANCH   4   5
ENDBRANCH   3   4
ENDBRANCH   2   3
ENDBRANCH   1   2
BRANCH   1  16
ATOM     16  C   UNL     1       9.395  26.407   8.280  1.00  0.00    +0.188 C 
BRANCH  16  17
ATOM     17  O   UNL     1      10.642  25.934   8.830  1.00  0.00    -0.378 OA
BRANCH  17  18
ATOM     18  C   UNL     1      11.480  25.393   7.785  1.00  0.00    +0.175 C 
BRANCH  18  19
ATOM     19  C   UNL     1      12.943  25.170   8.254  1.00  0.00    +0.114 C 
BRANCH  19  20
ATOM     20  N   UNL     1      13.767  24.335   7.338  1.00  0.00    -0.280 NA
BRANCH  20  21
ATOM     21  C   UNL     1      14.425  23.211   8.048  1.00  0.00    +0.208 C 
BRANCH  21  22
ATOM     22  C   UNL     1      15.946  23.291   8.143  1.00  0.00    +0.317 C 
ATOM     23  O   UNL     1      16.611  22.734   9.007  1.00  0.00    -0.251 OA
BRANCH  22  24
ATOM     24  O   UNL     1      16.510  24.092   7.204  1.00  0.00    -0.480 OA
ATOM     25  H   UNL     1      17.463  23.883   7.056  1.00  0.00    +0.296 HD
ENDBRANCH  22  24
ENDBRANCH  21  22
ENDBRANCH  20  21
BRANCH  20  26
ATOM     26  C   UNL     1      12.967  23.774   6.208  1.00  0.00    +0.208 C 
BRANCH  26  27
ATOM     27  C   UNL     1      13.819  23.683   4.944  1.00  0.00    +0.317 C 
ATOM     28  O   UNL     1      13.807  22.749   4.159  1.00  0.00    -0.251 OA
BRANCH  27  29
ATOM     29  O   UNL     1      14.641  24.757   4.805  1.00  0.00    -0.480 OA
ATOM     30  H   UNL     1      14.703  25.191   5.687  1.00  0.00    +0.296 HD
ENDBRANCH  27  29
ENDBRANCH  26  27
ENDBRANCH  20  26
ENDBRANCH  19  20
ENDBRANCH  18  19
ENDBRANCH  17  18
ENDBRANCH  16  17
ENDBRANCH   1  16
TORSDOF 21
ENDMDL
MODEL 7
REMARK VINA RESULT:      -5.7      1.771      2.761
REMARK SMILES O=C(O)CN(CCOCCOCCN(CC(=O)O)CC(=O)O)CC(=O)O
REMARK SMILES IDX 9 1 8 2 7 3 6 4 5 5 4 6 2 7 1 8 3 9 23 11 24 12 25 13 26 14
REMARK SMILES IDX 10 16 11 17 12 18 13 19 14 20 15 21 16 22 17 23 18 24 19 26
REMARK SMILES IDX 20 27 21 28 22 29
REMARK H PARENT 3 10 26 15 18 25 22 30
ROOT
ATOM      1  C   UNL     1      12.954  22.152   3.372  1.00  0.00    +0.188 C 
ENDROOT
BRANCH   1   2
ATOM      2  O   UNL     1      14.185  21.407   3.346  1.00  0.00    -0.378 OA
BRANCH   2   3
ATOM      3  C   UNL     1      14.956  21.604   4.546  1.00  0.00    +0.175 C 
BRANCH   3   4
ATOM      4  C   UNL     1      15.337  20.248   5.197  1.00  0.00    +0.114 C 
BRANCH   4   5
ATOM      5  N   UNL     1      16.792  19.914   5.286  1.00  0.00    -0.280 NA
BRANCH   5   6
ATOM      6  C   UNL     1      17.190  20.021   6.737  1.00  0.00    +0.208 C 
BRANCH   6   7
ATOM      7  C   UNL     1      18.639  19.593   6.978  1.00  0.00    +0.317 C 
ATOM      8  O   UNL     1      18.977  18.579   7.564  1.00  0.00    -0.251 OA
BRANCH   7   9
ATOM      9  O   UNL     1      19.528  20.508   6.508  1.00  0.00    -0.480 OA
ATOM     10  H   UNL     1      19.808  21.075   7.259  1.00  0.00    +0.296 HD
ENDBRANCH   7   9
ENDBRANCH   6   7
ENDBRANCH   5   6
BRANCH   5  11
ATOM     11  C   UNL     1      17.120  18.555   4.759  1.00  0.00    +0.208 C 
BRANCH  11  12
ATOM     12  C   UNL     1      17.191  18.481   3.243  1.00  0.00    +0.317 C 
ATOM     13  O   UNL     1      18.195  18.707   2.586  1.00  0.00    -0.251 OA
BRANCH  12  14
ATOM     14  O   UNL     1      16.048  18.062   2.677  1.00  0.00    -0.480 OA
ATOM     15  H   UNL     1      16.114  17.133   2.344  1.00  0.00    +0.296 HD
ENDBRANCH  12  14
ENDBRANCH  11  12
ENDBRANCH   5  11
ENDBRANCH   4   5
ENDBRANCH   3   4
ENDBRANCH   2   3
ENDBRANCH   1   2
BRANCH   1  16
ATOM     16  C   UNL     1      13.001  23.184   4.507  1.00  0.00    +0.188 C 
BRANCH  16  17
ATOM     17  O   UNL     1      11.679  23.670   4.816  1.00  0.00    -0.378 OA
BRANCH  17  18
ATOM     18  C   UNL     1      11.680  25.112   4.905  1.00  0.00    +0.175 C 
BRANCH  18  19
ATOM     19  C   UNL     1      10.407  25.665   5.600  1.00  0.00    +0.114 C 
BRANCH  19  20
ATOM     20  N   UNL     1      10.626  26.171   6.983  1.00  0.00    -0.280 NA
BRANCH  20  21
ATOM     21  C   UNL     1       9.365  26.628   7.615  1.00  0.00    +0.208 C 
BRANCH  21  22
ATOM     22  C   UNL     1       9.294  28.117   7.945  1.00  0.00    +0.317 C 
ATOM     23  O   UNL     1       8.541  28.908   7.395  1.00  0.00    -0.251 OA
BRANCH  22  24
ATOM     24  O   UNL     1      10.195  28.511   8.881  1.00  0.00    -0.480 OA
ATOM     25  H   UNL     1      11.021  28.869   8.480  1.00  0.00    +0.296 HD
ENDBRANCH  22  24
ENDBRANCH  21  22
ENDBRANCH  20  21
BRANCH  20  26
ATOM     26  C   UNL     1      11.252  25.145   7.870  1.00  0.00    +0.208 C 
BRANCH  26  27
ATOM     27  C   UNL     1      12.362  25.771   8.711  1.00  0.00    +0.317 C 
ATOM     28  O   UNL     1      12.193  26.357   9.767  1.00  0.00    -0.251 OA
BRANCH  27  29
ATOM     29  O   UNL     1      13.581  25.640   8.123  1.00  0.00    -0.480 OA
ATOM     30  H   UNL     1      13.767  26.483   7.649  1.00  0.00    +0.296 HD
ENDBRANCH  27  29
ENDBRANCH  26  27
ENDBRANCH  20  26
ENDBRANCH  19  20
ENDBRANCH  18  19
ENDBRANCH  17  18
ENDBRANCH  16  17
ENDBRANCH   1  16
TORSDOF 21
ENDMDL
MODEL 8
REMARK VINA RESULT:      -5.7      1.824      2.331
REMARK SMILES O=C(O)CN(CCOCCOCCN(CC(=O)O)CC(=O)O)CC(=O)O
REMARK SMILES IDX 9 1 8 2 7 3 6 4 5 5 4 6 2 7 1 8 3 9 23 11 24 12 25 13 26 14
REMARK SMILES IDX 10 16 11 17 12 18 13 19 14 20 15 21 16 22 17 23 18 24 19 26
REMARK SMILES IDX 20 27 21 28 22 29
REMARK H PARENT 3 10 26 15 18 25 22 30
ROOT
ATOM      1  C   UNL     1      13.315  23.053   5.475  1.00  0.00    +0.188 C 
ENDROOT
BRANCH   1   2
ATOM      2  O   UNL     1      14.690  22.676   5.674  1.00  0.00    -0.378 OA
BRANCH   2   3
ATOM      3  C   UNL     1      15.329  22.308   4.437  1.00  0.00    +0.175 C 
BRANCH   3   4
ATOM      4  C   UNL     1      15.260  20.776   4.206  1.00  0.00    +0.114 C 
BRANCH   4   5
ATOM      5  N   UNL     1      16.526  19.997   4.379  1.00  0.00    -0.280 NA
BRANCH   5   6
ATOM      6  C   UNL     1      16.772  19.864   5.862  1.00  0.00    +0.208 C 
BRANCH   6   7
ATOM      7  C   UNL     1      18.198  19.408   6.177  1.00  0.00    +0.317 C 
ATOM      8  O   UNL     1      18.493  18.578   7.020  1.00  0.00    -0.251 OA
BRANCH   7   9
ATOM      9  O   UNL     1      19.124  20.078   5.442  1.00  0.00    -0.480 OA
ATOM     10  H   UNL     1      19.352  20.906   5.918  1.00  0.00    +0.296 HD
ENDBRANCH   7   9
ENDBRANCH   6   7
ENDBRANCH   5   6
BRANCH   5  11
ATOM     11  C   UNL     1      16.483  18.648   3.740  1.00  0.00    +0.208 C 
BRANCH  11  12
ATOM     12  C   UNL     1      17.545  18.436   2.675  1.00  0.00    +0.317 C 
ATOM     13  O   UNL     1      18.726  18.227   2.906  1.00  0.00    -0.251 OA
BRANCH  12  14
ATOM     14  O   UNL     1      17.051  18.422   1.425  1.00  0.00    -0.480 OA
ATOM     15  H   UNL     1      17.332  19.213   0.903  1.00  0.00    +0.296 HD
ENDBRANCH  12  14
ENDBRANCH  11  12
ENDBRANCH   5  11
ENDBRANCH   4   5
ENDBRANCH   3   4
ENDBRANCH   2   3
ENDBRANCH   1   2
BRANCH   1  16
ATOM     16  C   UNL     1      12.398  22.017   6.139  1.00  0.00    +0.188 C 
BRANCH  16  17
ATOM     17  O   UNL     1      11.157  21.888   5.413  1.00  0.00    -0.378 OA
BRANCH  17  18
ATOM     18  C   UNL     1      11.240  22.581   4.149  1.00  0.00    +0.175 C 
BRANCH  18  19
ATOM     19  C   UNL     1       9.844  22.978   3.598  1.00  0.00    +0.114 C 
BRANCH  19  20
ATOM     20  N   UNL     1       9.411  24.360   3.943  1.00  0.00    -0.280 NA
BRANCH  20  21
ATOM     21  C   UNL     1       7.997  24.610   3.573  1.00  0.00    +0.208 C 
BRANCH  21  22
ATOM     22  C   UNL     1       7.751  25.832   2.691  1.00  0.00    +0.317 C 
ATOM     23  O   UNL     1       7.609  25.786   1.477  1.00  0.00    -0.251 OA
BRANCH  22  24
ATOM     24  O   UNL     1       7.760  27.006   3.372  1.00  0.00    -0.480 OA
ATOM     25  H   UNL     1       8.507  27.062   4.014  1.00  0.00    +0.296 HD
ENDBRANCH  22  24
ENDBRANCH  21  22
ENDBRANCH  20  21
BRANCH  20  26
ATOM     26  C   UNL     1       9.577  24.660   5.397  1.00  0.00    +0.208 C 
BRANCH  26  27
ATOM     27  C   UNL     1      10.225  26.028   5.590  1.00  0.00    +0.317 C 
ATOM     28  O   UNL     1       9.616  27.070   5.770  1.00  0.00    -0.251 OA
BRANCH  27  29
ATOM     29  O   UNL     1      11.580  25.969   5.495  1.00  0.00    -0.480 OA
ATOM     30  H   UNL     1      11.856  25.089   5.843  1.00  0.00    +0.296 HD
ENDBRANCH  27  29
ENDBRANCH  26  27
ENDBRANCH  20  26
ENDBRANCH  19  20
ENDBRANCH  18  19
ENDBRANCH  17  18
ENDBRANCH  16  17
ENDBRANCH   1  16
TORSDOF 21
ENDMDL
MODEL 9
REMARK VINA RESULT:      -5.7      2.025      3.070
REMARK SMILES O=C(O)CN(CCOCCOCCN(CC(=O)O)CC(=O)O)CC(=O)O
REMARK SMILES IDX 9 1 8 2 7 3 6 4 5 5 4 6 2 7 1 8 3 9 23 11 24 12 25 13 26 14
REMARK SMILES IDX 10 16 11 17 12 18 13 19 14 20 15 21 16 22 17 23 18 24 19 26
REMARK SMILES IDX 20 27 21 28 22 29
REMARK H PARENT 3 10 26 15 18 25 22 30
ROOT
ATOM      1  C   UNL     1      14.764  23.993   4.970  1.00  0.00    +0.188 C 
ENDROOT
BRANCH   1   2
ATOM      2  O   UNL     1      15.282  22.804   4.346  1.00  0.00    -0.378 OA
BRANCH   2   3
ATOM      3  C   UNL     1      15.464  21.736   5.295  1.00  0.00    +0.175 C 
BRANCH   3   4
ATOM      4  C   UNL     1      15.823  20.407   4.580  1.00  0.00    +0.114 C 
BRANCH   4   5
ATOM      5  N   UNL     1      17.111  19.748   4.962  1.00  0.00    -0.280 NA
BRANCH   5   6
ATOM      6  C   UNL     1      17.258  19.882   6.458  1.00  0.00    +0.208 C 
BRANCH   6   7
ATOM      7  C   UNL     1      18.632  19.427   6.951  1.00  0.00    +0.317 C 
ATOM      8  O   UNL     1      18.845  18.398   7.568  1.00  0.00    -0.251 OA
BRANCH   7   9
ATOM      9  O   UNL     1      19.603  20.337   6.671  1.00  0.00    -0.480 OA
ATOM     10  H   UNL     1      20.360  20.172   7.276  1.00  0.00    +0.296 HD
ENDBRANCH   7   9
ENDBRANCH   6   7
ENDBRANCH   5   6
BRANCH   5  11
ATOM     11  C   UNL     1      17.180  18.311   4.562  1.00  0.00    +0.208 C 
BRANCH  11  12
ATOM     12  C   UNL     1      18.208  18.020   3.482  1.00  0.00    +0.317 C 
ATOM     13  O   UNL     1      18.230  18.557   2.385  1.00  0.00    -0.251 OA
BRANCH  12  14
ATOM     14  O   UNL     1      19.160  17.156   3.872  1.00  0.00    -0.480 OA
ATOM     15  H   UNL     1      19.592  17.433   4.717  1.00  0.00    +0.296 HD
ENDBRANCH  12  14
ENDBRANCH  11  12
ENDBRANCH   5  11
ENDBRANCH   4   5
ENDBRANCH   3   4
ENDBRANCH   2   3
ENDBRANCH   1   2
BRANCH   1  16
ATOM     16  C   UNL     1      13.356  23.715   5.514  1.00  0.00    +0.188 C 
BRANCH  16  17
ATOM     17  O   UNL     1      12.386  24.593   4.905  1.00  0.00    -0.378 OA
BRANCH  17  18
ATOM     18  C   UNL     1      11.539  25.185   5.914  1.00  0.00    +0.175 C 
BRANCH  18  19
ATOM     19  C   UNL     1      10.142  24.513   5.985  1.00  0.00    +0.114 C 
BRANCH  19  20
ATOM     20  N   UNL     1       9.127  25.095   5.066  1.00  0.00    -0.280 NA
BRANCH  20  21
ATOM     21  C   UNL     1       9.252  26.569   4.959  1.00  0.00    +0.208 C 
BRANCH  21  22
ATOM     22  C   UNL     1       8.214  27.258   4.077  1.00  0.00    +0.317 C 
ATOM     23  O   UNL     1       7.010  27.048   4.140  1.00  0.00    -0.251 OA
BRANCH  22  24
ATOM     24  O   UNL     1       8.751  28.101   3.159  1.00  0.00    -0.480 OA
ATOM     25  H   UNL     1       9.530  28.592   3.511  1.00  0.00    +0.296 HD
ENDBRANCH  22  24
ENDBRANCH  21  22
ENDBRANCH  20  21
BRANCH  20  26
ATOM     26  C   UNL     1       9.206  24.516   3.691  1.00  0.00    +0.208 C 
BRANCH  26  27
ATOM     27  C   UNL     1       8.723  23.067   3.693  1.00  0.00    +0.317 C 
ATOM     28  O   UNL     1       9.415  22.100   3.424  1.00  0.00    -0.251 OA
BRANCH  27  29
ATOM     29  O   UNL     1       7.399  22.972   3.991  1.00  0.00    -0.480 OA
ATOM     30  H   UNL     1       7.103  23.865   4.282  1.00  0.00    +0.296 HD
ENDBRANCH  27  29
ENDBRANCH  26  27
ENDBRANCH  20  26
ENDBRANCH  19  20
ENDBRANCH  18  19
ENDBRANCH  17  18
ENDBRANCH  16  17
ENDBRANCH   1  16
TORSDOF 21
ENDMDL
