MODEL 1
REMARK VINA RESULT:      -3.2      0.000      0.000
REMARK SMILES NCC(=O)O
REMARK SMILES IDX 3 1 4 2 2 3 1 4 5 7
REMARK H PARENT 1 5 1 6 5 8
ROOT
ATOM      1  C   UNL     1      15.144  23.512   5.064  1.00  0.00    +0.317 C 
ATOM      2  O   UNL     1      15.484  22.684   4.234  1.00  0.00    -0.251 OA
ENDROOT
BRANCH   1   3
ATOM      3  C   UNL     1      15.093  23.273   6.571  1.00  0.00    +0.201 C 
BRANCH   3   4
ATOM      4  N   UNL     1      16.337  23.800   7.188  1.00  0.00    -0.321 NA
ATOM      5  H   UNL     1      16.275  23.632   8.197  1.00  0.00    +0.119 HD
ATOM      6  H   UNL     1      16.314  24.822   7.108  1.00  0.00    +0.119 HD
ENDBRANCH   3   4
ENDBRANCH   1   3
BRANCH   1   7
ATOM      7  O   UNL     1      14.794  24.789   4.756  1.00  0.00    -0.480 OA
ATOM      8  H   UNL     1      14.064  25.031   5.379  1.00  0.00    +0.296 HD
ENDBRANCH   1   7
TORSDOF 3
ENDMDL
MODEL 2
REMARK VINA RESULT:      -3.2      3.632      4.088
REMARK SMILES NCC(=O)O
REMARK SMILES IDX 3 1 4 2 2 3 1 4 5 7
REMARK H PARENT 1 5 1 6 5 8
ROOT
ATOM      1  C   UNL     1      12.985  25.180   5.089  1.00  0.00    +0.317 C 
ATOM      2  O   UNL     1      12.640  25.677   6.149  1.00  0.00    -0.251 OA
ENDROOT
BRANCH   1   3
ATOM      3  C   UNL     1      12.089  24.343   4.180  1.00  0.00    +0.201 C 
BRANCH   3   4
ATOM      4  N   UNL     1      12.028  24.981   2.839  1.00  0.00    -0.321 NA
ATOM      5  H   UNL     1      11.682  25.936   2.968  1.00  0.00    +0.119 HD
ATOM      6  H   UNL     1      11.280  24.520   2.309  1.00  0.00    +0.119 HD
ENDBRANCH   3   4
ENDBRANCH   1   3
BRANCH   1   7
ATOM      7  O   UNL     1      14.223  25.335   4.551  1.00  0.00    -0.480 OA
ATOM      8  H   UNL     1      14.865  25.090   5.264  1.00  0.00    +0.296 HD
ENDBRANCH   1   7
TORSDOF 3
ENDMDL
MODEL 3
REMARK VINA RESULT:      -3.1      2.569      2.958
REMARK SMILES NCC(=O)O
REMARK SMILES IDX 3 1 4 2 2 3 1 4 5 7
REMARK H PARENT 1 5 1 6 5 8
ROOT
ATOM      1  C   UNL     1      13.040  25.036   4.798  1.00  0.00    +0.317 C 
ATOM      2  O   UNL     1      12.719  25.847   5.653  1.00  0.00    -0.251 OA
ENDROOT
BRANCH   1   3
ATOM      3  C   UNL     1      13.998  23.868   5.013  1.00  0.00    +0.201 C 
BRANCH   3   4
ATOM      4  N   UNL     1      15.393  24.347   4.842  1.00  0.00    -0.321 NA
ATOM      5  H   UNL     1      15.882  24.194   5.730  1.00  0.00    +0.119 HD
ATOM      6  H   UNL     1      15.362  25.369   4.754  1.00  0.00    +0.119 HD
ENDBRANCH   3   4
ENDBRANCH   1   3
BRANCH   1   7
ATOM      7  O   UNL     1      12.552  25.046   3.530  1.00  0.00    -0.480 OA
ATOM      8  H   UNL     1      11.600  24.785   3.600  1.00  0.00    +0.296 HD
ENDBRANCH   1   7
TORSDOF 3
ENDMDL
MODEL 4
REMARK VINA RESULT:      -3.1      2.234      2.469
REMARK SMILES NCC(=O)O
REMARK SMILES IDX 3 1 4 2 2 3 1 4 5 7
REMARK H PARENT 1 5 1 6 5 8
ROOT
ATOM      1  C   UNL     1      15.038  23.603   5.346  1.00  0.00    +0.317 C 
ATOM      2  O   UNL     1      15.483  23.401   6.465  1.00  0.00    -0.251 OA
ENDROOT
BRANCH   1   3
ATOM      3  C   UNL     1      13.671  24.212   5.043  1.00  0.00    +0.201 C 
BRANCH   3   4
ATOM      4  N   UNL     1      13.857  25.598   4.543  1.00  0.00    -0.321 NA
ATOM      5  H   UNL     1      14.851  25.713   4.320  1.00  0.00    +0.119 HD
ATOM      6  H   UNL     1      13.708  26.236   5.332  1.00  0.00    +0.119 HD
ENDBRANCH   3   4
ENDBRANCH   1   3
BRANCH   1   7
ATOM      7  O   UNL     1      15.725  23.343   4.203  1.00  0.00    -0.480 OA
ATOM      8  H   UNL     1      15.237  22.610   3.751  1.00  0.00    +0.296 HD
ENDBRANCH   1   7
TORSDOF 3
ENDMDL
MODEL 5
REMARK VINA RESULT:      -3.0      3.474      3.581
REMARK SMILES NCC(=O)O
REMARK SMILES IDX 3 1 4 2 2 3 1 4 5 7
REMARK H PARENT 1 5 1 6 5 8
ROOT
ATOM      1  C   UNL     1      11.996  24.457   4.026  1.00  0.00    +0.317 C 
ATOM      2  O   UNL     1      11.347  23.442   4.221  1.00  0.00    -0.251 OA
ENDROOT
BRANCH   1   3
ATOM      3  C   UNL     1      12.837  25.176   5.077  1.00  0.00    +0.201 C 
BRANCH   3   4
ATOM      4  N   UNL     1      14.264  25.141   4.665  1.00  0.00    -0.321 NA
ATOM      5  H   UNL     1      14.826  25.400   5.481  1.00  0.00    +0.119 HD
ATOM      6  H   UNL     1      14.416  25.914   4.008  1.00  0.00    +0.119 HD
ENDBRANCH   3   4
ENDBRANCH   1   3
BRANCH   1   7
ATOM      7  O   UNL     1      12.087  25.073   2.818  1.00  0.00    -0.480 OA
ATOM      8  H   UNL     1      11.192  25.454   2.636  1.00  0.00    +0.296 HD
ENDBRANCH   1   7
TORSDOF 3
ENDMDL
MODEL 6
REMARK VINA RESULT:      -3.0      5.988      6.555
REMARK SMILES NCC(=O)O
REMARK SMILES IDX 3 1 4 2 2 3 1 4 5 7
REMARK H PARENT 1 5 1 6 5 8
ROOT
ATOM      1  C   UNL     1      18.528  17.966   3.782  1.00  0.00    +0.317 C 
ATOM      2  O   UNL     1      18.353  18.495   2.696  1.00  0.00    -0.251 OA
ENDROOT
BRANCH   1   3
ATOM      3  C   UNL     1      18.096  18.553   5.123  1.00  0.00    +0.201 C 
BRANCH   3   4
ATOM      4  N   UNL     1      18.846  19.812   5.364  1.00  0.00    -0.321 NA
ATOM      5  H   UNL     1      18.556  20.485   4.648  1.00  0.00    +0.119 HD
ATOM      6  H   UNL     1      19.833  19.633   5.145  1.00  0.00    +0.119 HD
ENDBRANCH   3   4
ENDBRANCH   1   3
BRANCH   1   7
ATOM      7  O   UNL     1      19.108  16.747   3.942  1.00  0.00    -0.480 OA
ATOM      8  H   UNL     1      18.937  16.250   3.103  1.00  0.00    +0.296 HD
ENDBRANCH   1   7
TORSDOF 3
ENDMDL
MODEL 7
REMARK VINA RESULT:      -2.9      6.629      6.736
REMARK SMILES NCC(=O)O
REMARK SMILES IDX 3 1 4 2 2 3 1 4 5 7
REMARK H PARENT 1 5 1 6 5 8
ROOT
ATOM      1  C   UNL     1      17.786  17.990   2.903  1.00  0.00    +0.317 C 
ATOM      2  O   UNL     1      18.903  18.038   3.391  1.00  0.00    -0.251 OA
ENDROOT
BRANCH   1   3
ATOM      3  C   UNL     1      16.522  17.559   3.643  1.00  0.00    +0.201 C 
BRANCH   3   4
ATOM      4  N   UNL     1      16.882  17.171   5.031  1.00  0.00    -0.321 NA
ATOM      5  H   UNL     1      16.744  17.994   5.626  1.00  0.00    +0.119 HD
ATOM      6  H   UNL     1      17.897  17.019   5.058  1.00  0.00    +0.119 HD
ENDBRANCH   3   4
ENDBRANCH   1   3
BRANCH   1   7
ATOM      7  O   UNL     1      17.506  18.354   1.624  1.00  0.00    -0.480 OA
ATOM      8  H   UNL     1      17.789  19.299   1.539  1.00  0.00    +0.296 HD
ENDBRANCH   1   7
TORSDOF 3
ENDMDL
MODEL 8
REMARK VINA RESULT:      -2.9      6.100      6.410
REMARK SMILES NCC(=O)O
REMARK SMILES IDX 3 1 4 2 2 3 1 4 5 7
REMARK H PARENT 1 5 1 6 5 8
ROOT
ATOM      1  C   UNL     1      18.417  18.699   5.151  1.00  0.00    +0.317 C 
ATOM      2  O   UNL     1      18.474  17.755   5.921  1.00  0.00    -0.251 OA
ENDROOT
BRANCH   1   3
ATOM      3  C   UNL     1      17.752  18.672   3.777  1.00  0.00    +0.201 C 
BRANCH   3   4
ATOM      4  N   UNL     1      18.649  17.976   2.818  1.00  0.00    -0.321 NA
ATOM      5  H   UNL     1      19.119  18.695   2.260  1.00  0.00    +0.119 HD
ATOM      6  H   UNL     1      18.056  17.488   2.138  1.00  0.00    +0.119 HD
ENDBRANCH   3   4
ENDBRANCH   1   3
BRANCH   1   7
ATOM      7  O   UNL     1      18.917  19.932   5.431  1.00  0.00    -0.480 OA
ATOM      8  H   UNL     1      18.925  20.426   4.574  1.00  0.00    +0.296 HD
ENDBRANCH   1   7
TORSDOF 3
ENDMDL
MODEL 9
REMARK VINA RESULT:      -2.8      8.597      8.791
REMARK SMILES NCC(=O)O
REMARK SMILES IDX 3 1 4 2 2 3 1 4 5 7
REMARK H PARENT 1 5 1 6 5 8
ROOT
ATOM      1  C   UNL     1       8.902  28.244   8.327  1.00  0.00    +0.317 C 
ATOM      2  O   UNL     1      10.009  28.580   8.716  1.00  0.00    -0.251 OA
ENDROOT
BRANCH   1   3
ATOM      3  C   UNL     1       8.191  26.950   8.716  1.00  0.00    +0.201 C 
BRANCH   3   4
ATOM      4  N   UNL     1       7.097  26.688   7.746  1.00  0.00    -0.321 NA
ATOM      5  H   UNL     1       6.808  27.590   7.357  1.00  0.00    +0.119 HD
ATOM      6  H   UNL     1       6.277  26.378   8.279  1.00  0.00    +0.119 HD
ENDBRANCH   3   4
ENDBRANCH   1   3
BRANCH   1   7
ATOM      7  O   UNL     1       8.128  29.004   7.509  1.00  0.00    -0.480 OA
ATOM      8  H   UNL     1       8.401  29.942   7.667  1.00  0.00    +0.296 HD
ENDBRANCH   1   7
TORSDOF 3
ENDMDL
