MODEL 1
REMARK VINA RESULT:      -3.8      0.000      0.000
REMARK SMILES O=C(O)CC(=O)O
REMARK SMILES IDX 4 1 2 2 1 3 3 4 5 6 6 7 7 8
REMARK H PARENT 3 5 7 9
ROOT
ATOM      1  C   UNL     1      15.960  18.203   3.000  1.00  0.00    +0.244 C 
ENDROOT
BRANCH   1   2
ATOM      2  C   UNL     1      15.824  17.487   4.314  1.00  0.00    +0.314 C 
ATOM      3  O   UNL     1      14.755  16.993   4.654  1.00  0.00    -0.252 OA
BRANCH   2   4
ATOM      4  O   UNL     1      16.912  17.403   5.103  1.00  0.00    -0.481 OA
ATOM      5  H   UNL     1      17.594  16.746   4.818  1.00  0.00    +0.296 HD
ENDBRANCH   2   4
ENDBRANCH   1   2
BRANCH   1   6
ATOM      6  C   UNL     1      17.270  18.080   2.296  1.00  0.00    +0.314 C 
ATOM      7  O   UNL     1      18.310  18.584   2.699  1.00  0.00    -0.252 OA
BRANCH   6   8
ATOM      8  O   UNL     1      17.210  17.357   1.157  1.00  0.00    -0.481 OA
ATOM      9  H   UNL     1      16.955  17.859   0.358  1.00  0.00    +0.296 HD
ENDBRANCH   6   8
ENDBRANCH   1   6
TORSDOF 4
ENDMDL
MODEL 2
REMARK VINA RESULT:      -3.8      0.566      1.683
REMARK SMILES O=C(O)CC(=O)O
REMARK SMILES IDX 4 1 2 2 1 3 3 4 5 6 6 7 7 8
REMARK H PARENT 3 5 7 9
ROOT
ATOM      1  C   UNL     1      15.911  17.926   2.821  1.00  0.00    +0.244 C 
ENDROOT
BRANCH   1   2
ATOM      2  C   UNL     1      16.031  17.618   4.287  1.00  0.00    +0.314 C 
ATOM      3  O   UNL     1      17.060  17.137   4.747  1.00  0.00    -0.252 OA
BRANCH   2   4
ATOM      4  O   UNL     1      14.975  17.888   5.078  1.00  0.00    -0.481 OA
ATOM      5  H   UNL     1      14.300  17.169   5.146  1.00  0.00    +0.296 HD
ENDBRANCH   2   4
ENDBRANCH   1   2
BRANCH   1   6
ATOM      6  C   UNL     1      17.132  17.726   1.988  1.00  0.00    +0.314 C 
ATOM      7  O   UNL     1      17.263  16.820   1.175  1.00  0.00    -0.252 OA
BRANCH   6   8
ATOM      8  O   UNL     1      18.099  18.643   2.210  1.00  0.00    -0.481 OA
ATOM      9  H   UNL     1      17.877  19.330   2.868  1.00  0.00    +0.296 HD
ENDBRANCH   6   8
ENDBRANCH   1   6
TORSDOF 4
ENDMDL
MODEL 3
REMARK VINA RESULT:      -3.8     12.321     13.213
REMARK SMILES O=C(O)CC(=O)O
REMARK SMILES IDX 4 1 2 2 1 3 3 4 5 6 6 7 7 8
REMARK H PARENT 3 5 7 9
ROOT
ATOM      1  C   UNL     1       8.561  26.987   8.956  1.00  0.00    +0.244 C 
ENDROOT
BRANCH   1   2
ATOM      2  C   UNL     1       9.200  28.225   8.392  1.00  0.00    +0.314 C 
ATOM      3  O   UNL     1       8.703  28.810   7.435  1.00  0.00    -0.252 OA
BRANCH   2   4
ATOM      4  O   UNL     1      10.331  28.671   8.969  1.00  0.00    -0.481 OA
ATOM      5  H   UNL     1      10.338  29.632   9.204  1.00  0.00    +0.296 HD
ENDBRANCH   2   4
ENDBRANCH   1   2
BRANCH   1   6
ATOM      6  C   UNL     1       9.447  25.803   9.159  1.00  0.00    +0.314 C 
ATOM      7  O   UNL     1      10.607  25.877   9.542  1.00  0.00    -0.252 OA
BRANCH   6   8
ATOM      8  O   UNL     1       8.851  24.624   8.878  1.00  0.00    -0.481 OA
ATOM      9  H   UNL     1       7.897  24.580   9.085  1.00  0.00    +0.296 HD
ENDBRANCH   6   8
ENDBRANCH   1   6
TORSDOF 4
ENDMDL
MODEL 4
REMARK VINA RESULT:      -3.7     12.385     13.232
REMARK SMILES O=C(O)CC(=O)O
REMARK SMILES IDX 4 1 2 2 1 3 3 4 5 6 6 7 7 8
REMARK H PARENT 3 5 7 9
ROOT
ATOM      1  C   UNL     1       8.423  27.113   9.000  1.00  0.00    +0.244 C 
ENDROOT
BRANCH   1   2
ATOM      2  C   UNL     1       9.161  25.804   9.041  1.00  0.00    +0.314 C 
ATOM      3  O   UNL     1      10.379  25.763   8.906  1.00  0.00    -0.252 OA
BRANCH   2   4
ATOM      4  O   UNL     1       8.444  24.680   9.231  1.00  0.00    -0.481 OA
ATOM      5  H   UNL     1       7.471  24.765   9.074  1.00  0.00    +0.296 HD
ENDBRANCH   2   4
ENDBRANCH   1   2
BRANCH   1   6
ATOM      6  C   UNL     1       9.117  28.258   8.341  1.00  0.00    +0.314 C 
ATOM      7  O   UNL     1       8.724  28.792   7.312  1.00  0.00    -0.252 OA
BRANCH   6   8
ATOM      8  O   UNL     1      10.234  28.660   8.984  1.00  0.00    -0.481 OA
ATOM      9  H   UNL     1      10.203  28.584   9.958  1.00  0.00    +0.296 HD
ENDBRANCH   6   8
ENDBRANCH   1   6
TORSDOF 4
ENDMDL
MODEL 5
REMARK VINA RESULT:      -3.7      0.286      3.278
REMARK SMILES O=C(O)CC(=O)O
REMARK SMILES IDX 4 1 2 2 1 3 3 4 5 6 6 7 7 8
REMARK H PARENT 3 5 7 9
ROOT
ATOM      1  C   UNL     1      15.886  18.057   2.985  1.00  0.00    +0.244 C 
ENDROOT
BRANCH   1   2
ATOM      2  C   UNL     1      17.171  17.820   2.243  1.00  0.00    +0.314 C 
ATOM      3  O   UNL     1      17.240  16.976   1.356  1.00  0.00    -0.252 OA
BRANCH   2   4
ATOM      4  O   UNL     1      18.242  18.563   2.580  1.00  0.00    -0.481 OA
ATOM      5  H   UNL     1      18.603  18.402   3.486  1.00  0.00    +0.296 HD
ENDBRANCH   2   4
ENDBRANCH   1   2
BRANCH   1   6
ATOM      6  C   UNL     1      15.793  17.503   4.367  1.00  0.00    +0.314 C 
ATOM      7  O   UNL     1      14.865  16.810   4.764  1.00  0.00    -0.252 OA
BRANCH   6   8
ATOM      8  O   UNL     1      16.835  17.837   5.158  1.00  0.00    -0.481 OA
ATOM      9  H   UNL     1      16.770  18.715   5.584  1.00  0.00    +0.296 HD
ENDBRANCH   6   8
ENDBRANCH   1   6
TORSDOF 4
ENDMDL
MODEL 6
REMARK VINA RESULT:      -3.6      7.221      7.806
REMARK SMILES O=C(O)CC(=O)O
REMARK SMILES IDX 4 1 2 2 1 3 3 4 5 6 6 7 7 8
REMARK H PARENT 3 5 7 9
ROOT
ATOM      1  C   UNL     1      13.554  23.712   5.496  1.00  0.00    +0.244 C 
ENDROOT
BRANCH   1   2
ATOM      2  C   UNL     1      15.037  23.468   5.515  1.00  0.00    +0.314 C 
ATOM      3  O   UNL     1      15.629  23.276   6.572  1.00  0.00    -0.252 OA
BRANCH   2   4
ATOM      4  O   UNL     1      15.692  23.464   4.339  1.00  0.00    -0.481 OA
ATOM      5  H   UNL     1      15.186  23.825   3.570  1.00  0.00    +0.296 HD
ENDBRANCH   2   4
ENDBRANCH   1   2
BRANCH   1   6
ATOM      6  C   UNL     1      13.103  25.099   5.181  1.00  0.00    +0.314 C 
ATOM      7  O   UNL     1      12.047  25.579   5.573  1.00  0.00    -0.252 OA
BRANCH   6   8
ATOM      8  O   UNL     1      13.970  25.792   4.412  1.00  0.00    -0.481 OA
ATOM      9  H   UNL     1      13.692  25.922   3.484  1.00  0.00    +0.296 HD
ENDBRANCH   6   8
ENDBRANCH   1   6
TORSDOF 4
ENDMDL
MODEL 7
REMARK VINA RESULT:      -3.6      7.649      8.178
REMARK SMILES O=C(O)CC(=O)O
REMARK SMILES IDX 4 1 2 2 1 3 3 4 5 6 6 7 7 8
REMARK H PARENT 3 5 7 9
ROOT
ATOM      1  C   UNL     1      12.759  23.611   4.430  1.00  0.00    +0.244 C 
ENDROOT
BRANCH   1   2
ATOM      2  C   UNL     1      13.558  24.789   4.913  1.00  0.00    +0.314 C 
ATOM      3  O   UNL     1      13.006  25.754   5.431  1.00  0.00    -0.252 OA
BRANCH   2   4
ATOM      4  O   UNL     1      14.895  24.751   4.761  1.00  0.00    -0.481 OA
ATOM      5  H   UNL     1      15.379  25.563   5.050  1.00  0.00    +0.296 HD
ENDBRANCH   2   4
ENDBRANCH   1   2
BRANCH   1   6
ATOM      6  C   UNL     1      11.779  23.864   3.334  1.00  0.00    +0.314 C 
ATOM      7  O   UNL     1      10.900  23.076   3.008  1.00  0.00    -0.252 OA
BRANCH   6   8
ATOM      8  O   UNL     1      11.947  25.054   2.719  1.00  0.00    -0.481 OA
ATOM      9  H   UNL     1      11.136  25.441   2.333  1.00  0.00    +0.296 HD
ENDBRANCH   6   8
ENDBRANCH   1   6
TORSDOF 4
ENDMDL
MODEL 8
REMARK VINA RESULT:      -3.6      7.022      7.474
REMARK SMILES O=C(O)CC(=O)O
REMARK SMILES IDX 4 1 2 2 1 3 3 4 5 6 6 7 7 8
REMARK H PARENT 3 5 7 9
ROOT
ATOM      1  C   UNL     1      13.394  23.415   4.725  1.00  0.00    +0.244 C 
ENDROOT
BRANCH   1   2
ATOM      2  C   UNL     1      12.854  24.796   4.485  1.00  0.00    +0.314 C 
ATOM      3  O   UNL     1      12.941  25.665   5.347  1.00  0.00    -0.252 OA
BRANCH   2   4
ATOM      4  O   UNL     1      12.274  25.050   3.297  1.00  0.00    -0.481 OA
ATOM      5  H   UNL     1      11.552  24.428   3.035  1.00  0.00    +0.296 HD
ENDBRANCH   2   4
ENDBRANCH   1   2
BRANCH   1   6
ATOM      6  C   UNL     1      14.879  23.263   4.736  1.00  0.00    +0.314 C 
ATOM      7  O   UNL     1      15.455  22.185   4.683  1.00  0.00    -0.252 OA
BRANCH   6   8
ATOM      8  O   UNL     1      15.544  24.436   4.813  1.00  0.00    -0.481 OA
ATOM      9  H   UNL     1      16.348  24.495   4.260  1.00  0.00    +0.296 HD
ENDBRANCH   6   8
ENDBRANCH   1   6
TORSDOF 4
ENDMDL
MODEL 9
REMARK VINA RESULT:      -3.5     12.200     13.068
REMARK SMILES O=C(O)CC(=O)O
REMARK SMILES IDX 4 1 2 2 1 3 3 4 5 6 6 7 7 8
REMARK H PARENT 3 5 7 9
ROOT
ATOM      1  C   UNL     1       9.542  26.706   9.216  1.00  0.00    +0.244 C 
ENDROOT
BRANCH   1   2
ATOM      2  C   UNL     1      10.901  26.301   8.717  1.00  0.00    +0.314 C 
ATOM      3  O   UNL     1      11.822  26.094   9.499  1.00  0.00    -0.252 OA
BRANCH   2   4
ATOM      4  O   UNL     1      11.074  26.171   7.389  1.00  0.00    -0.481 OA
ATOM      5  H   UNL     1      10.577  26.818   6.830  1.00  0.00    +0.296 HD
ENDBRANCH   2   4
ENDBRANCH   1   2
BRANCH   1   6
ATOM      6  C   UNL     1       9.026  28.032   8.767  1.00  0.00    +0.314 C 
ATOM      7  O   UNL     1       9.652  28.799   8.046  1.00  0.00    -0.252 OA
BRANCH   6   8
ATOM      8  O   UNL     1       7.792  28.321   9.232  1.00  0.00    -0.481 OA
ATOM      9  H   UNL     1       7.054  28.056   8.648  1.00  0.00    +0.296 HD
ENDBRANCH   6   8
ENDBRANCH   1   6
TORSDOF 4
ENDMDL
