MODEL 1
REMARK VINA RESULT:      -3.5      0.000      0.000
REMARK SMILES O=C(O)C(=O)O
REMARK SMILES IDX 2 1 1 2 3 3 4 5 5 6 6 7
REMARK H PARENT 3 4 6 8
ROOT
ATOM      1  C   UNL     1      12.003  24.612   4.107  1.00  0.00    +0.414 C 
ATOM      2  O   UNL     1      11.189  23.797   4.504  1.00  0.00    -0.238 OA
ENDROOT
BRANCH   1   3
ATOM      3  O   UNL     1      12.153  25.064   2.854  1.00  0.00    -0.473 OA
ATOM      4  H   UNL     1      11.293  25.414   2.522  1.00  0.00    +0.297 HD
ENDBRANCH   1   3
BRANCH   1   5
ATOM      5  C   UNL     1      13.012  25.247   5.077  1.00  0.00    +0.414 C 
ATOM      6  O   UNL     1      12.656  25.644   6.173  1.00  0.00    -0.238 OA
BRANCH   5   7
ATOM      7  O   UNL     1      14.250  25.291   4.563  1.00  0.00    -0.473 OA
ATOM      8  H   UNL     1      14.201  25.265   3.578  1.00  0.00    +0.297 HD
ENDBRANCH   5   7
ENDBRANCH   1   5
TORSDOF 3
ENDMDL
MODEL 2
REMARK VINA RESULT:      -3.4      1.458      2.385
REMARK SMILES O=C(O)C(=O)O
REMARK SMILES IDX 2 1 1 2 3 3 4 5 5 6 6 7
REMARK H PARENT 3 4 6 8
ROOT
ATOM      1  C   UNL     1      14.208  24.024   5.069  1.00  0.00    +0.414 C 
ATOM      2  O   UNL     1      13.917  22.917   5.486  1.00  0.00    -0.238 OA
ENDROOT
BRANCH   1   3
ATOM      3  O   UNL     1      15.434  24.484   4.778  1.00  0.00    -0.473 OA
ATOM      4  H   UNL     1      15.799  24.970   5.554  1.00  0.00    +0.297 HD
ENDBRANCH   1   3
BRANCH   1   5
ATOM      5  C   UNL     1      13.118  25.078   4.818  1.00  0.00    +0.414 C 
ATOM      6  O   UNL     1      12.773  25.839   5.705  1.00  0.00    -0.238 OA
BRANCH   5   7
ATOM      7  O   UNL     1      12.645  25.028   3.564  1.00  0.00    -0.473 OA
ATOM      8  H   UNL     1      13.363  25.261   2.929  1.00  0.00    +0.297 HD
ENDBRANCH   5   7
ENDBRANCH   1   5
TORSDOF 3
ENDMDL
MODEL 3
REMARK VINA RESULT:      -3.4      1.454      2.048
REMARK SMILES O=C(O)C(=O)O
REMARK SMILES IDX 2 1 1 2 3 3 4 5 5 6 6 7
REMARK H PARENT 3 4 6 8
ROOT
ATOM      1  C   UNL     1      13.115  25.086   4.808  1.00  0.00    +0.414 C 
ATOM      2  O   UNL     1      12.757  25.835   5.698  1.00  0.00    -0.238 OA
ENDROOT
BRANCH   1   3
ATOM      3  O   UNL     1      12.662  25.051   3.546  1.00  0.00    -0.473 OA
ATOM      4  H   UNL     1      12.917  24.196   3.125  1.00  0.00    +0.297 HD
ENDBRANCH   1   3
BRANCH   1   5
ATOM      5  C   UNL     1      14.201  24.028   5.063  1.00  0.00    +0.414 C 
ATOM      6  O   UNL     1      13.905  22.921   5.477  1.00  0.00    -0.238 OA
BRANCH   5   7
ATOM      7  O   UNL     1      15.429  24.485   4.781  1.00  0.00    -0.473 OA
ATOM      8  H   UNL     1      16.103  23.824   5.065  1.00  0.00    +0.297 HD
ENDBRANCH   5   7
ENDBRANCH   1   5
TORSDOF 3
ENDMDL
MODEL 4
REMARK VINA RESULT:      -3.4      2.973      3.617
REMARK SMILES O=C(O)C(=O)O
REMARK SMILES IDX 2 1 1 2 3 3 4 5 5 6 6 7
REMARK H PARENT 3 4 6 8
ROOT
ATOM      1  C   UNL     1      15.167  23.557   5.023  1.00  0.00    +0.414 C 
ATOM      2  O   UNL     1      15.455  22.683   4.225  1.00  0.00    -0.238 OA
ENDROOT
BRANCH   1   3
ATOM      3  O   UNL     1      14.750  24.801   4.747  1.00  0.00    -0.473 OA
ATOM      4  H   UNL     1      15.258  25.159   3.981  1.00  0.00    +0.297 HD
ENDBRANCH   1   3
BRANCH   1   5
ATOM      5  C   UNL     1      15.260  23.299   6.535  1.00  0.00    +0.414 C 
ATOM      6  O   UNL     1      14.397  22.658   7.111  1.00  0.00    -0.238 OA
BRANCH   5   7
ATOM      7  O   UNL     1      16.356  23.850   7.076  1.00  0.00    -0.473 OA
ATOM      8  H   UNL     1      17.000  24.076   6.364  1.00  0.00    +0.297 HD
ENDBRANCH   5   7
ENDBRANCH   1   5
TORSDOF 3
ENDMDL
MODEL 5
REMARK VINA RESULT:      -3.4      3.033      4.155
REMARK SMILES O=C(O)C(=O)O
REMARK SMILES IDX 2 1 1 2 3 3 4 5 5 6 6 7
REMARK H PARENT 3 4 6 8
ROOT
ATOM      1  C   UNL     1      15.289  23.220   6.520  1.00  0.00    +0.414 C 
ATOM      2  O   UNL     1      14.471  22.511   7.078  1.00  0.00    -0.238 OA
ENDROOT
BRANCH   1   3
ATOM      3  O   UNL     1      16.342  23.835   7.076  1.00  0.00    -0.473 OA
ATOM      4  H   UNL     1      16.029  24.504   7.730  1.00  0.00    +0.297 HD
ENDBRANCH   1   3
BRANCH   1   5
ATOM      5  C   UNL     1      15.184  23.497   5.012  1.00  0.00    +0.414 C 
ATOM      6  O   UNL     1      15.419  22.619   4.200  1.00  0.00    -0.238 OA
BRANCH   5   7
ATOM      7  O   UNL     1      14.823  24.763   4.754  1.00  0.00    -0.473 OA
ATOM      8  H   UNL     1      14.994  25.325   5.547  1.00  0.00    +0.297 HD
ENDBRANCH   5   7
ENDBRANCH   1   5
TORSDOF 3
ENDMDL
MODEL 6
REMARK VINA RESULT:      -3.3      8.580      9.161
REMARK SMILES O=C(O)C(=O)O
REMARK SMILES IDX 2 1 1 2 3 3 4 5 5 6 6 7
REMARK H PARENT 3 4 6 8
ROOT
ATOM      1  C   UNL     1      18.210  18.161   3.853  1.00  0.00    +0.414 C 
ATOM      2  O   UNL     1      18.489  18.254   2.671  1.00  0.00    -0.238 OA
ENDROOT
BRANCH   1   3
ATOM      3  O   UNL     1      18.886  18.680   4.889  1.00  0.00    -0.473 OA
ATOM      4  H   UNL     1      19.162  17.957   5.501  1.00  0.00    +0.297 HD
ENDBRANCH   1   3
BRANCH   1   5
ATOM      5  C   UNL     1      16.964  17.383   4.305  1.00  0.00    +0.414 C 
ATOM      6  O   UNL     1      15.933  17.431   3.658  1.00  0.00    -0.238 OA
BRANCH   5   7
ATOM      7  O   UNL     1      17.179  16.698   5.438  1.00  0.00    -0.473 OA
ATOM      8  H   UNL     1      18.075  16.913   5.791  1.00  0.00    +0.297 HD
ENDBRANCH   5   7
ENDBRANCH   1   5
TORSDOF 3
ENDMDL
MODEL 7
REMARK VINA RESULT:      -3.3      8.571      9.035
REMARK SMILES O=C(O)C(=O)O
REMARK SMILES IDX 2 1 1 2 3 3 4 5 5 6 6 7
REMARK H PARENT 3 4 6 8
ROOT
ATOM      1  C   UNL     1      17.005  17.367   4.390  1.00  0.00    +0.414 C 
ATOM      2  O   UNL     1      15.940  17.450   3.807  1.00  0.00    -0.238 OA
ENDROOT
BRANCH   1   3
ATOM      3  O   UNL     1      17.282  16.625   5.472  1.00  0.00    -0.473 OA
ATOM      4  H   UNL     1      17.468  15.696   5.199  1.00  0.00    +0.297 HD
ENDBRANCH   1   3
BRANCH   1   5
ATOM      5  C   UNL     1      18.227  18.165   3.906  1.00  0.00    +0.414 C 
ATOM      6  O   UNL     1      18.510  18.210   2.721  1.00  0.00    -0.238 OA
BRANCH   5   7
ATOM      7  O   UNL     1      18.880  18.754   4.918  1.00  0.00    -0.473 OA
ATOM      8  H   UNL     1      18.271  19.368   5.393  1.00  0.00    +0.297 HD
ENDBRANCH   5   7
ENDBRANCH   1   5
TORSDOF 3
ENDMDL
MODEL 8
REMARK VINA RESULT:      -3.2      1.251      2.474
REMARK SMILES O=C(O)C(=O)O
REMARK SMILES IDX 2 1 1 2 3 3 4 5 5 6 6 7
REMARK H PARENT 3 4 6 8
ROOT
ATOM      1  C   UNL     1      12.368  25.485   5.972  1.00  0.00    +0.414 C 
ATOM      2  O   UNL     1      11.225  25.871   5.805  1.00  0.00    -0.238 OA
ENDROOT
BRANCH   1   3
ATOM      3  O   UNL     1      13.115  25.619   7.078  1.00  0.00    -0.473 OA
ATOM      4  H   UNL     1      12.533  25.617   7.874  1.00  0.00    +0.297 HD
ENDBRANCH   1   3
BRANCH   1   5
ATOM      5  C   UNL     1      13.120  24.754   4.849  1.00  0.00    +0.414 C 
ATOM      6  O   UNL     1      12.642  23.764   4.323  1.00  0.00    -0.238 OA
BRANCH   5   7
ATOM      7  O   UNL     1      14.294  25.336   4.564  1.00  0.00    -0.473 OA
ATOM      8  H   UNL     1      14.138  26.175   4.068  1.00  0.00    +0.297 HD
ENDBRANCH   5   7
ENDBRANCH   1   5
TORSDOF 3
ENDMDL
MODEL 9
REMARK VINA RESULT:      -3.2      0.864      2.447
REMARK SMILES O=C(O)C(=O)O
REMARK SMILES IDX 2 1 1 2 3 3 4 5 5 6 6 7
REMARK H PARENT 3 4 6 8
ROOT
ATOM      1  C   UNL     1      13.055  25.205   5.031  1.00  0.00    +0.414 C 
ATOM      2  O   UNL     1      12.638  25.658   6.082  1.00  0.00    -0.238 OA
ENDROOT
BRANCH   1   3
ATOM      3  O   UNL     1      14.319  25.227   4.584  1.00  0.00    -0.473 OA
ATOM      4  H   UNL     1      14.357  24.844   3.675  1.00  0.00    +0.297 HD
ENDBRANCH   1   3
BRANCH   1   5
ATOM      5  C   UNL     1      12.102  24.515   4.043  1.00  0.00    +0.414 C 
ATOM      6  O   UNL     1      10.941  24.871   3.947  1.00  0.00    -0.238 OA
BRANCH   5   7
ATOM      7  O   UNL     1      12.707  23.533   3.358  1.00  0.00    -0.473 OA
ATOM      8  H   UNL     1      13.675  23.717   3.300  1.00  0.00    +0.297 HD
ENDBRANCH   5   7
ENDBRANCH   1   5
TORSDOF 3
ENDMDL
