MODEL 1
REMARK VINA RESULT:      -5.5      0.000      0.000
REMARK SMILES O=C(O)c1ccccc1O
REMARK SMILES IDX 4 1 5 2 6 3 7 4 8 5 9 6 2 7 1 8 3 9 10 11
REMARK H PARENT 3 10 10 12
ROOT
ATOM      1  C   UNL     1      17.177  17.298   4.343  1.00  0.00    +0.101 A 
ATOM      2  C   UNL     1      15.812  17.235   4.661  1.00  0.00    +0.019 A 
ATOM      3  C   UNL     1      14.854  17.679   3.749  1.00  0.00    +0.001 A 
ATOM      4  C   UNL     1      15.252  18.172   2.509  1.00  0.00    +0.004 A 
ATOM      5  C   UNL     1      16.605  18.231   2.175  1.00  0.00    +0.047 A 
ATOM      6  C   UNL     1      17.563  17.799   3.094  1.00  0.00    +0.130 A 
ENDROOT
BRANCH   1   7
ATOM      7  C   UNL     1      18.142  16.807   5.365  1.00  0.00    +0.339 C 
ATOM      8  O   UNL     1      18.049  15.707   5.885  1.00  0.00    -0.246 OA
BRANCH   7   9
ATOM      9  O   UNL     1      19.085  17.707   5.720  1.00  0.00    -0.478 OA
ATOM     10  H   UNL     1      19.284  17.671   6.681  1.00  0.00    +0.297 HD
ENDBRANCH   7   9
ENDBRANCH   1   7
BRANCH   6  11
ATOM     11  O   UNL     1      18.893  17.885   2.771  1.00  0.00    -0.507 OA
ATOM     12  H   UNL     1      19.055  17.326   1.988  1.00  0.00    +0.293 HD
ENDBRANCH   6  11
TORSDOF 3
ENDMDL
MODEL 2
REMARK VINA RESULT:      -5.3      1.643      1.824
REMARK SMILES O=C(O)c1ccccc1O
REMARK SMILES IDX 4 1 5 2 6 3 7 4 8 5 9 6 2 7 1 8 3 9 10 11
REMARK H PARENT 3 10 10 12
ROOT
ATOM      1  C   UNL     1      17.359  19.078   4.197  1.00  0.00    +0.101 A 
ATOM      2  C   UNL     1      16.162  19.762   4.466  1.00  0.00    +0.019 A 
ATOM      3  C   UNL     1      15.176  19.869   3.486  1.00  0.00    +0.001 A 
ATOM      4  C   UNL     1      15.370  19.281   2.238  1.00  0.00    +0.004 A 
ATOM      5  C   UNL     1      16.549  18.589   1.960  1.00  0.00    +0.047 A 
ATOM      6  C   UNL     1      17.541  18.495   2.938  1.00  0.00    +0.130 A 
ENDROOT
BRANCH   1   7
ATOM      7  C   UNL     1      18.366  19.005   5.291  1.00  0.00    +0.339 C 
ATOM      8  O   UNL     1      18.567  17.989   5.935  1.00  0.00    -0.246 OA
BRANCH   7   9
ATOM      9  O   UNL     1      18.986  20.175   5.557  1.00  0.00    -0.478 OA
ATOM     10  H   UNL     1      18.621  20.611   6.358  1.00  0.00    +0.297 HD
ENDBRANCH   7   9
ENDBRANCH   1   7
BRANCH   6  11
ATOM     11  O   UNL     1      18.709  17.838   2.650  1.00  0.00    -0.507 OA
ATOM     12  H   UNL     1      18.486  16.985   2.233  1.00  0.00    +0.293 HD
ENDBRANCH   6  11
TORSDOF 3
ENDMDL
MODEL 3
REMARK VINA RESULT:      -5.1     10.038     10.859
REMARK SMILES O=C(O)c1ccccc1O
REMARK SMILES IDX 4 1 5 2 6 3 7 4 8 5 9 6 2 7 1 8 3 9 10 11
REMARK H PARENT 3 10 10 12
ROOT
ATOM      1  C   UNL     1      11.537  25.389   7.026  1.00  0.00    +0.101 A 
ATOM      2  C   UNL     1      12.332  25.803   8.106  1.00  0.00    +0.019 A 
ATOM      3  C   UNL     1      11.774  25.953   9.376  1.00  0.00    +0.001 A 
ATOM      4  C   UNL     1      10.425  25.675   9.579  1.00  0.00    +0.004 A 
ATOM      5  C   UNL     1       9.624  25.253   8.517  1.00  0.00    +0.047 A 
ATOM      6  C   UNL     1      10.181  25.117   7.244  1.00  0.00    +0.130 A 
ENDROOT
BRANCH   1   7
ATOM      7  C   UNL     1      12.201  25.252   5.701  1.00  0.00    +0.339 C 
ATOM      8  O   UNL     1      11.731  24.584   4.794  1.00  0.00    -0.246 OA
BRANCH   7   9
ATOM      9  O   UNL     1      13.399  25.868   5.611  1.00  0.00    -0.478 OA
ATOM     10  H   UNL     1      13.613  26.375   6.425  1.00  0.00    +0.297 HD
ENDBRANCH   7   9
ENDBRANCH   1   7
BRANCH   6  11
ATOM     11  O   UNL     1       9.384  24.727   6.199  1.00  0.00    -0.507 OA
ATOM     12  H   UNL     1       9.956  24.524   5.436  1.00  0.00    +0.293 HD
ENDBRANCH   6  11
TORSDOF 3
ENDMDL
MODEL 4
REMARK VINA RESULT:      -5.1      3.790      4.950
REMARK SMILES O=C(O)c1ccccc1O
REMARK SMILES IDX 4 1 5 2 6 3 7 4 8 5 9 6 2 7 1 8 3 9 10 11
REMARK H PARENT 3 10 10 12
ROOT
ATOM      1  C   UNL     1      14.876  20.497   3.771  1.00  0.00    +0.101 A 
ATOM      2  C   UNL     1      14.877  19.859   2.521  1.00  0.00    +0.019 A 
ATOM      3  C   UNL     1      15.011  18.474   2.437  1.00  0.00    +0.001 A 
ATOM      4  C   UNL     1      15.126  17.715   3.599  1.00  0.00    +0.004 A 
ATOM      5  C   UNL     1      15.115  18.334   4.849  1.00  0.00    +0.047 A 
ATOM      6  C   UNL     1      14.995  19.723   4.931  1.00  0.00    +0.130 A 
ENDROOT
BRANCH   1   7
ATOM      7  C   UNL     1      14.730  21.979   3.784  1.00  0.00    +0.339 C 
ATOM      8  O   UNL     1      15.504  22.713   4.375  1.00  0.00    -0.246 OA
BRANCH   7   9
ATOM      9  O   UNL     1      13.630  22.436   3.146  1.00  0.00    -0.478 OA
ATOM     10  H   UNL     1      13.476  23.391   3.318  1.00  0.00    +0.297 HD
ENDBRANCH   7   9
ENDBRANCH   1   7
BRANCH   6  11
ATOM     11  O   UNL     1      15.012  20.328   6.161  1.00  0.00    -0.507 OA
ATOM     12  H   UNL     1      15.835  20.846   6.237  1.00  0.00    +0.293 HD
ENDBRANCH   6  11
TORSDOF 3
ENDMDL
MODEL 5
REMARK VINA RESULT:      -5.0     11.418     12.165
REMARK SMILES O=C(O)c1ccccc1O
REMARK SMILES IDX 4 1 5 2 6 3 7 4 8 5 9 6 2 7 1 8 3 9 10 11
REMARK H PARENT 3 10 10 12
ROOT
ATOM      1  C   UNL     1      10.343  26.662   7.575  1.00  0.00    +0.101 A 
ATOM      2  C   UNL     1      10.755  26.667   8.917  1.00  0.00    +0.019 A 
ATOM      3  C   UNL     1      11.925  26.011   9.298  1.00  0.00    +0.001 A 
ATOM      4  C   UNL     1      12.701  25.362   8.340  1.00  0.00    +0.004 A 
ATOM      5  C   UNL     1      12.310  25.358   7.001  1.00  0.00    +0.047 A 
ATOM      6  C   UNL     1      11.130  26.003   6.624  1.00  0.00    +0.130 A 
ENDROOT
BRANCH   1   7
ATOM      7  C   UNL     1       9.083  27.382   7.243  1.00  0.00    +0.339 C 
ATOM      8  O   UNL     1       8.946  28.583   7.408  1.00  0.00    -0.246 OA
BRANCH   7   9
ATOM      9  O   UNL     1       8.081  26.583   6.813  1.00  0.00    -0.478 OA
ATOM     10  H   UNL     1       8.413  25.848   6.252  1.00  0.00    +0.297 HD
ENDBRANCH   7   9
ENDBRANCH   1   7
BRANCH   6  11
ATOM     11  O   UNL     1      10.737  25.972   5.311  1.00  0.00    -0.507 OA
ATOM     12  H   UNL     1      11.306  25.340   4.835  1.00  0.00    +0.293 HD
ENDBRANCH   6  11
TORSDOF 3
ENDMDL
MODEL 6
REMARK VINA RESULT:      -4.9      1.824      2.399
REMARK SMILES O=C(O)c1ccccc1O
REMARK SMILES IDX 4 1 5 2 6 3 7 4 8 5 9 6 2 7 1 8 3 9 10 11
REMARK H PARENT 3 10 10 12
ROOT
ATOM      1  C   UNL     1      17.276  18.150   4.515  1.00  0.00    +0.101 A 
ATOM      2  C   UNL     1      15.986  17.613   4.383  1.00  0.00    +0.019 A 
ATOM      3  C   UNL     1      14.875  18.332   4.825  1.00  0.00    +0.001 A 
ATOM      4  C   UNL     1      15.043  19.595   5.385  1.00  0.00    +0.004 A 
ATOM      5  C   UNL     1      16.319  20.146   5.513  1.00  0.00    +0.047 A 
ATOM      6  C   UNL     1      17.431  19.419   5.082  1.00  0.00    +0.130 A 
ENDROOT
BRANCH   1   7
ATOM      7  C   UNL     1      18.413  17.326   4.021  1.00  0.00    +0.339 C 
ATOM      8  O   UNL     1      18.818  16.338   4.611  1.00  0.00    -0.246 OA
BRANCH   7   9
ATOM      9  O   UNL     1      19.005  17.804   2.904  1.00  0.00    -0.478 OA
ATOM     10  H   UNL     1      19.637  17.159   2.518  1.00  0.00    +0.297 HD
ENDBRANCH   7   9
ENDBRANCH   1   7
BRANCH   6  11
ATOM     11  O   UNL     1      18.684  19.954   5.235  1.00  0.00    -0.507 OA
ATOM     12  H   UNL     1      18.857  20.064   6.189  1.00  0.00    +0.293 HD
ENDBRANCH   6  11
TORSDOF 3
ENDMDL
MODEL 7
REMARK VINA RESULT:      -4.9      9.816     10.649
REMARK SMILES O=C(O)c1ccccc1O
REMARK SMILES IDX 4 1 5 2 6 3 7 4 8 5 9 6 2 7 1 8 3 9 10 11
REMARK H PARENT 3 10 10 12
ROOT
ATOM      1  C   UNL     1      11.685  25.458   7.010  1.00  0.00    +0.101 A 
ATOM      2  C   UNL     1      10.290  25.607   7.036  1.00  0.00    +0.019 A 
ATOM      3  C   UNL     1       9.632  25.873   8.237  1.00  0.00    +0.001 A 
ATOM      4  C   UNL     1      10.363  26.009   9.414  1.00  0.00    +0.004 A 
ATOM      5  C   UNL     1      11.752  25.875   9.402  1.00  0.00    +0.047 A 
ATOM      6  C   UNL     1      12.407  25.594   8.201  1.00  0.00    +0.130 A 
ENDROOT
BRANCH   1   7
ATOM      7  C   UNL     1      12.318  25.175   5.692  1.00  0.00    +0.339 C 
ATOM      8  O   UNL     1      11.891  24.330   4.923  1.00  0.00    -0.246 OA
BRANCH   7   9
ATOM      9  O   UNL     1      13.445  25.881   5.452  1.00  0.00    -0.478 OA
ATOM     10  H   UNL     1      13.286  26.626   4.832  1.00  0.00    +0.297 HD
ENDBRANCH   7   9
ENDBRANCH   1   7
BRANCH   6  11
ATOM     11  O   UNL     1      13.769  25.437   8.199  1.00  0.00    -0.507 OA
ATOM     12  H   UNL     1      14.025  24.984   7.374  1.00  0.00    +0.293 HD
ENDBRANCH   6  11
TORSDOF 3
ENDMDL
MODEL 8
REMARK VINA RESULT:      -4.9      2.224      2.635
REMARK SMILES O=C(O)c1ccccc1O
REMARK SMILES IDX 4 1 5 2 6 3 7 4 8 5 9 6 2 7 1 8 3 9 10 11
REMARK H PARENT 3 10 10 12
ROOT
ATOM      1  C   UNL     1      17.160  19.134   4.317  1.00  0.00    +0.101 A 
ATOM      2  C   UNL     1      17.043  18.203   3.273  1.00  0.00    +0.019 A 
ATOM      3  C   UNL     1      15.996  18.299   2.357  1.00  0.00    +0.001 A 
ATOM      4  C   UNL     1      15.070  19.334   2.466  1.00  0.00    +0.004 A 
ATOM      5  C   UNL     1      15.180  20.273   3.492  1.00  0.00    +0.047 A 
ATOM      6  C   UNL     1      16.221  20.166   4.417  1.00  0.00    +0.130 A 
ENDROOT
BRANCH   1   7
ATOM      7  C   UNL     1      18.303  18.968   5.257  1.00  0.00    +0.339 C 
ATOM      8  O   UNL     1      18.528  17.922   5.843  1.00  0.00    -0.246 OA
BRANCH   7   9
ATOM      9  O   UNL     1      19.024  20.091   5.461  1.00  0.00    -0.478 OA
ATOM     10  H   UNL     1      19.856  19.909   5.952  1.00  0.00    +0.297 HD
ENDBRANCH   7   9
ENDBRANCH   1   7
BRANCH   6  11
ATOM     11  O   UNL     1      16.308  21.076   5.439  1.00  0.00    -0.507 OA
ATOM     12  H   UNL     1      15.515  20.986   5.999  1.00  0.00    +0.293 HD
ENDBRANCH   6  11
TORSDOF 3
ENDMDL
MODEL 9
REMARK VINA RESULT:      -4.8      2.015      3.023
REMARK SMILES O=C(O)c1ccccc1O
REMARK SMILES IDX 4 1 5 2 6 3 7 4 8 5 9 6 2 7 1 8 3 9 10 11
REMARK H PARENT 3 10 10 12
ROOT
ATOM      1  C   UNL     1      16.938  18.837   3.327  1.00  0.00    +0.101 A 
ATOM      2  C   UNL     1      15.661  19.208   2.877  1.00  0.00    +0.019 A 
ATOM      3  C   UNL     1      14.892  20.114   3.609  1.00  0.00    +0.001 A 
ATOM      4  C   UNL     1      15.398  20.666   4.782  1.00  0.00    +0.004 A 
ATOM      5  C   UNL     1      16.670  20.315   5.236  1.00  0.00    +0.047 A 
ATOM      6  C   UNL     1      17.433  19.398   4.510  1.00  0.00    +0.130 A 
ENDROOT
BRANCH   1   7
ATOM      7  C   UNL     1      17.701  17.866   2.495  1.00  0.00    +0.339 C 
ATOM      8  O   UNL     1      17.176  17.182   1.632  1.00  0.00    -0.246 OA
BRANCH   7   9
ATOM      9  O   UNL     1      19.006  17.755   2.825  1.00  0.00    -0.478 OA
ATOM     10  H   UNL     1      19.132  17.263   3.666  1.00  0.00    +0.297 HD
ENDBRANCH   7   9
ENDBRANCH   1   7
BRANCH   6  11
ATOM     11  O   UNL     1      18.671  19.036   4.974  1.00  0.00    -0.507 OA
ATOM     12  H   UNL     1      19.319  19.172   4.258  1.00  0.00    +0.293 HD
ENDBRANCH   6  11
TORSDOF 3
ENDMDL
