MODEL 1
REMARK VINA RESULT:      -4.5      0.000      0.000
REMARK SMILES O=C(O)[C@@H](O)[C@@H](O)C(=O)O
REMARK SMILES IDX 4 1 2 2 1 3 3 4 5 6 6 8 7 9 8 11 9 12 10 13
REMARK H PARENT 3 5 5 7 7 10 10 14
ROOT
ATOM      1  C   UNL     1      13.698  23.935   6.092  1.00  0.00    +0.264 C 
ENDROOT
BRANCH   1   2
ATOM      2  C   UNL     1      15.077  23.515   5.593  1.00  0.00    +0.335 C 
ATOM      3  O   UNL     1      15.287  22.877   4.575  1.00  0.00    -0.249 OA
BRANCH   2   4
ATOM      4  O   UNL     1      16.056  23.900   6.451  1.00  0.00    -0.479 OA
ATOM      5  H   UNL     1      15.712  23.920   7.373  1.00  0.00    +0.296 HD
ENDBRANCH   2   4
ENDBRANCH   1   2
BRANCH   1   6
ATOM      6  O   UNL     1      13.740  24.302   7.482  1.00  0.00    -0.379 OA
ATOM      7  H   UNL     1      13.670  25.284   7.517  1.00  0.00    +0.211 HD
ENDBRANCH   1   6
BRANCH   1   8
ATOM      8  C   UNL     1      13.099  25.036   5.214  1.00  0.00    +0.264 C 
BRANCH   8   9
ATOM      9  O   UNL     1      14.122  25.696   4.451  1.00  0.00    -0.379 OA
ATOM     10  H   UNL     1      13.834  26.624   4.331  1.00  0.00    +0.211 HD
ENDBRANCH   8   9
BRANCH   8  11
ATOM     11  C   UNL     1      12.092  24.473   4.222  1.00  0.00    +0.335 C 
ATOM     12  O   UNL     1      11.332  23.545   4.465  1.00  0.00    -0.249 OA
BRANCH  11  13
ATOM     13  O   UNL     1      12.199  25.044   3.000  1.00  0.00    -0.479 OA
ATOM     14  H   UNL     1      11.753  24.495   2.319  1.00  0.00    +0.296 HD
ENDBRANCH  11  13
ENDBRANCH   8  11
ENDBRANCH   1   8
TORSDOF 7
ENDMDL
MODEL 2
REMARK VINA RESULT:      -4.5      1.374      3.545
REMARK SMILES O=C(O)[C@@H](O)[C@@H](O)C(=O)O
REMARK SMILES IDX 4 1 2 2 1 3 3 4 5 6 6 8 7 9 8 11 9 12 10 13
REMARK H PARENT 3 5 5 7 7 10 10 14
ROOT
ATOM      1  C   UNL     1      13.035  24.928   4.738  1.00  0.00    +0.264 C 
ENDROOT
BRANCH   1   2
ATOM      2  C   UNL     1      12.265  25.394   5.969  1.00  0.00    +0.335 C 
ATOM      3  O   UNL     1      11.081  25.688   5.983  1.00  0.00    -0.249 OA
BRANCH   2   4
ATOM      4  O   UNL     1      13.073  25.489   7.055  1.00  0.00    -0.479 OA
ATOM      5  H   UNL     1      13.908  24.992   6.903  1.00  0.00    +0.296 HD
ENDBRANCH   2   4
ENDBRANCH   1   2
BRANCH   1   6
ATOM      6  O   UNL     1      14.153  25.791   4.468  1.00  0.00    -0.379 OA
ATOM      7  H   UNL     1      13.820  26.716   4.539  1.00  0.00    +0.211 HD
ENDBRANCH   1   6
BRANCH   1   8
ATOM      8  C   UNL     1      13.447  23.459   4.860  1.00  0.00    +0.264 C 
BRANCH   8   9
ATOM      9  O   UNL     1      13.263  22.771   3.612  1.00  0.00    -0.379 OA
ATOM     10  H   UNL     1      14.156  22.567   3.265  1.00  0.00    +0.211 HD
ENDBRANCH   8   9
BRANCH   8  11
ATOM     11  C   UNL     1      14.915  23.320   5.237  1.00  0.00    +0.335 C 
ATOM     12  O   UNL     1      15.344  23.418   6.379  1.00  0.00    -0.249 OA
BRANCH  11  13
ATOM     13  O   UNL     1      15.712  23.178   4.154  1.00  0.00    -0.479 OA
ATOM     14  H   UNL     1      16.638  22.994   4.425  1.00  0.00    +0.296 HD
ENDBRANCH  11  13
ENDBRANCH   8  11
ENDBRANCH   1   8
TORSDOF 7
ENDMDL
MODEL 3
REMARK VINA RESULT:      -4.4      1.341      3.660
REMARK SMILES O=C(O)[C@@H](O)[C@@H](O)C(=O)O
REMARK SMILES IDX 4 1 2 2 1 3 3 4 5 6 6 8 7 9 8 11 9 12 10 13
REMARK H PARENT 3 5 5 7 7 10 10 14
ROOT
ATOM      1  C   UNL     1      13.313  23.331   4.706  1.00  0.00    +0.264 C 
ENDROOT
BRANCH   1   2
ATOM      2  C   UNL     1      13.243  24.806   5.092  1.00  0.00    +0.335 C 
ATOM      3  O   UNL     1      12.394  25.298   5.816  1.00  0.00    -0.249 OA
BRANCH   2   4
ATOM      4  O   UNL     1      14.222  25.525   4.490  1.00  0.00    -0.479 OA
ATOM      5  H   UNL     1      14.874  24.923   4.063  1.00  0.00    +0.296 HD
ENDBRANCH   2   4
ENDBRANCH   1   2
BRANCH   1   6
ATOM      6  O   UNL     1      12.973  23.142   3.322  1.00  0.00    -0.379 OA
ATOM      7  H   UNL     1      12.593  23.994   3.004  1.00  0.00    +0.211 HD
ENDBRANCH   1   6
BRANCH   1   8
ATOM      8  C   UNL     1      14.673  22.725   5.062  1.00  0.00    +0.264 C 
BRANCH   8   9
ATOM      9  O   UNL     1      15.712  23.285   4.244  1.00  0.00    -0.379 OA
ATOM     10  H   UNL     1      15.511  24.238   4.142  1.00  0.00    +0.211 HD
ENDBRANCH   8   9
BRANCH   8  11
ATOM     11  C   UNL     1      15.044  23.001   6.512  1.00  0.00    +0.335 C 
ATOM     12  O   UNL     1      14.443  22.545   7.476  1.00  0.00    -0.249 OA
BRANCH  11  13
ATOM     13  O   UNL     1      16.054  23.894   6.623  1.00  0.00    -0.479 OA
ATOM     14  H   UNL     1      15.726  24.748   6.981  1.00  0.00    +0.296 HD
ENDBRANCH  11  13
ENDBRANCH   8  11
ENDBRANCH   1   8
TORSDOF 7
ENDMDL
MODEL 4
REMARK VINA RESULT:      -4.3      5.405      7.091
REMARK SMILES O=C(O)[C@@H](O)[C@@H](O)C(=O)O
REMARK SMILES IDX 4 1 2 2 1 3 3 4 5 6 6 8 7 9 8 11 9 12 10 13
REMARK H PARENT 3 5 5 7 7 10 10 14
ROOT
ATOM      1  C   UNL     1      15.932  17.943   4.335  1.00  0.00    +0.264 C 
ENDROOT
BRANCH   1   2
ATOM      2  C   UNL     1      15.629  19.307   4.948  1.00  0.00    +0.335 C 
ATOM      3  O   UNL     1      14.561  19.629   5.440  1.00  0.00    -0.249 OA
BRANCH   2   4
ATOM      4  O   UNL     1      16.688  20.148   4.840  1.00  0.00    -0.479 OA
ATOM      5  H   UNL     1      16.670  20.608   3.970  1.00  0.00    +0.296 HD
ENDBRANCH   2   4
ENDBRANCH   1   2
BRANCH   1   6
ATOM      6  O   UNL     1      15.110  16.918   4.920  1.00  0.00    -0.379 OA
ATOM      7  H   UNL     1      14.548  16.559   4.195  1.00  0.00    +0.211 HD
ENDBRANCH   1   6
BRANCH   1   8
ATOM      8  C   UNL     1      15.823  17.980   2.809  1.00  0.00    +0.264 C 
BRANCH   8   9
ATOM      9  O   UNL     1      15.153  19.174   2.374  1.00  0.00    -0.379 OA
ATOM     10  H   UNL     1      14.211  19.079   2.625  1.00  0.00    +0.211 HD
ENDBRANCH   8   9
BRANCH   8  11
ATOM     11  C   UNL     1      17.196  17.970   2.151  1.00  0.00    +0.335 C 
ATOM     12  O   UNL     1      18.131  18.678   2.499  1.00  0.00    -0.249 OA
BRANCH  11  13
ATOM     13  O   UNL     1      17.240  17.162   1.067  1.00  0.00    -0.479 OA
ATOM     14  H   UNL     1      17.045  17.667   0.248  1.00  0.00    +0.296 HD
ENDBRANCH  11  13
ENDBRANCH   8  11
ENDBRANCH   1   8
TORSDOF 7
ENDMDL
MODEL 5
REMARK VINA RESULT:      -4.3      1.403      3.847
REMARK SMILES O=C(O)[C@@H](O)[C@@H](O)C(=O)O
REMARK SMILES IDX 4 1 2 2 1 3 3 4 5 6 6 8 7 9 8 11 9 12 10 13
REMARK H PARENT 3 5 5 7 7 10 10 14
ROOT
ATOM      1  C   UNL     1      12.185  24.529   4.045  1.00  0.00    +0.264 C 
ENDROOT
BRANCH   1   2
ATOM      2  C   UNL     1      10.962  24.677   4.945  1.00  0.00    +0.335 C 
ATOM      3  O   UNL     1      10.141  25.576   4.864  1.00  0.00    -0.249 OA
BRANCH   2   4
ATOM      4  O   UNL     1      10.918  23.704   5.889  1.00  0.00    -0.479 OA
ATOM      5  H   UNL     1      11.630  23.043   5.731  1.00  0.00    +0.296 HD
ENDBRANCH   2   4
ENDBRANCH   1   2
BRANCH   1   6
ATOM      6  O   UNL     1      11.946  25.101   2.748  1.00  0.00    -0.379 OA
ATOM      7  H   UNL     1      12.244  26.040   2.793  1.00  0.00    +0.211 HD
ENDBRANCH   1   6
BRANCH   1   8
ATOM      8  C   UNL     1      13.441  25.096   4.712  1.00  0.00    +0.264 C 
BRANCH   8   9
ATOM      9  O   UNL     1      13.097  25.879   5.867  1.00  0.00    -0.379 OA
ATOM     10  H   UNL     1      13.440  26.783   5.710  1.00  0.00    +0.211 HD
ENDBRANCH   8   9
BRANCH   8  11
ATOM     11  C   UNL     1      14.372  23.988   5.183  1.00  0.00    +0.335 C 
ATOM     12  O   UNL     1      13.998  22.967   5.745  1.00  0.00    -0.249 OA
BRANCH  11  13
ATOM     13  O   UNL     1      15.676  24.301   5.003  1.00  0.00    -0.479 OA
ATOM     14  H   UNL     1      16.215  23.489   4.879  1.00  0.00    +0.296 HD
ENDBRANCH  11  13
ENDBRANCH   8  11
ENDBRANCH   1   8
TORSDOF 7
ENDMDL
MODEL 6
REMARK VINA RESULT:      -4.3      1.675      3.695
REMARK SMILES O=C(O)[C@@H](O)[C@@H](O)C(=O)O
REMARK SMILES IDX 4 1 2 2 1 3 3 4 5 6 6 8 7 9 8 11 9 12 10 13
REMARK H PARENT 3 5 5 7 7 10 10 14
ROOT
ATOM      1  C   UNL     1      12.721  23.560   4.609  1.00  0.00    +0.264 C 
ENDROOT
BRANCH   1   2
ATOM      2  C   UNL     1      12.929  25.011   5.032  1.00  0.00    +0.335 C 
ATOM      3  O   UNL     1      12.142  25.664   5.696  1.00  0.00    -0.249 OA
BRANCH   2   4
ATOM      4  O   UNL     1      14.089  25.512   4.538  1.00  0.00    -0.479 OA
ATOM      5  H   UNL     1      14.816  25.396   5.191  1.00  0.00    +0.296 HD
ENDBRANCH   2   4
ENDBRANCH   1   2
BRANCH   1   6
ATOM      6  O   UNL     1      12.733  23.432   3.177  1.00  0.00    -0.379 OA
ATOM      7  H   UNL     1      11.921  23.880   2.845  1.00  0.00    +0.211 HD
ENDBRANCH   1   6
BRANCH   1   8
ATOM      8  C   UNL     1      13.729  22.630   5.288  1.00  0.00    +0.264 C 
BRANCH   8   9
ATOM      9  O   UNL     1      13.092  21.421   5.731  1.00  0.00    -0.379 OA
ATOM     10  H   UNL     1      13.563  20.677   5.302  1.00  0.00    +0.211 HD
ENDBRANCH   8   9
BRANCH   8  11
ATOM     11  C   UNL     1      14.846  22.226   4.336  1.00  0.00    +0.335 C 
ATOM     12  O   UNL     1      14.960  21.112   3.842  1.00  0.00    -0.249 OA
BRANCH  11  13
ATOM     13  O   UNL     1      15.762  23.207   4.173  1.00  0.00    -0.479 OA
ATOM     14  H   UNL     1      16.324  23.032   3.387  1.00  0.00    +0.296 HD
ENDBRANCH  11  13
ENDBRANCH   8  11
ENDBRANCH   1   8
TORSDOF 7
ENDMDL
MODEL 7
REMARK VINA RESULT:      -4.3      2.089      3.311
REMARK SMILES O=C(O)[C@@H](O)[C@@H](O)C(=O)O
REMARK SMILES IDX 4 1 2 2 1 3 3 4 5 6 6 8 7 9 8 11 9 12 10 13
REMARK H PARENT 3 5 5 7 7 10 10 14
ROOT
ATOM      1  C   UNL     1      15.293  23.333   7.733  1.00  0.00    +0.264 C 
ENDROOT
BRANCH   1   2
ATOM      2  C   UNL     1      15.347  21.907   8.272  1.00  0.00    +0.335 C 
ATOM      3  O   UNL     1      14.855  21.539   9.325  1.00  0.00    -0.249 OA
BRANCH   2   4
ATOM      4  O   UNL     1      16.057  21.091   7.452  1.00  0.00    -0.479 OA
ATOM      5  H   UNL     1      16.635  20.496   7.981  1.00  0.00    +0.296 HD
ENDBRANCH   2   4
ENDBRANCH   1   2
BRANCH   1   6
ATOM      6  O   UNL     1      16.604  23.798   7.367  1.00  0.00    -0.379 OA
ATOM      7  H   UNL     1      16.817  24.546   7.971  1.00  0.00    +0.211 HD
ENDBRANCH   1   6
BRANCH   1   8
ATOM      8  C   UNL     1      14.287  23.459   6.586  1.00  0.00    +0.264 C 
BRANCH   8   9
ATOM      9  O   UNL     1      13.540  24.681   6.694  1.00  0.00    -0.379 OA
ATOM     10  H   UNL     1      13.046  24.639   7.538  1.00  0.00    +0.211 HD
ENDBRANCH   8   9
BRANCH   8  11
ATOM     11  C   UNL     1      14.982  23.475   5.232  1.00  0.00    +0.335 C 
ATOM     12  O   UNL     1      15.486  22.492   4.706  1.00  0.00    -0.249 OA
BRANCH  11  13
ATOM     13  O   UNL     1      15.073  24.722   4.716  1.00  0.00    -0.479 OA
ATOM     14  H   UNL     1      16.001  24.931   4.471  1.00  0.00    +0.296 HD
ENDBRANCH  11  13
ENDBRANCH   8  11
ENDBRANCH   1   8
TORSDOF 7
ENDMDL
MODEL 8
REMARK VINA RESULT:      -4.3      1.494      3.714
REMARK SMILES O=C(O)[C@@H](O)[C@@H](O)C(=O)O
REMARK SMILES IDX 4 1 2 2 1 3 3 4 5 6 6 8 7 9 8 11 9 12 10 13
REMARK H PARENT 3 5 5 7 7 10 10 14
ROOT
ATOM      1  C   UNL     1      12.412  23.055   4.850  1.00  0.00    +0.264 C 
ENDROOT
BRANCH   1   2
ATOM      2  C   UNL     1      11.878  23.682   3.566  1.00  0.00    +0.335 C 
ATOM      3  O   UNL     1      11.158  23.116   2.760  1.00  0.00    -0.249 OA
BRANCH   2   4
ATOM      4  O   UNL     1      12.339  24.946   3.399  1.00  0.00    -0.479 OA
ATOM      5  H   UNL     1      13.317  24.970   3.514  1.00  0.00    +0.296 HD
ENDBRANCH   2   4
ENDBRANCH   1   2
BRANCH   1   6
ATOM      6  O   UNL     1      11.520  22.040   5.341  1.00  0.00    -0.379 OA
ATOM      7  H   UNL     1      11.940  21.172   5.140  1.00  0.00    +0.211 HD
ENDBRANCH   1   6
BRANCH   1   8
ATOM      8  C   UNL     1      13.841  22.538   4.666  1.00  0.00    +0.264 C 
BRANCH   8   9
ATOM      9  O   UNL     1      14.196  22.501   3.274  1.00  0.00    -0.379 OA
ATOM     10  H   UNL     1      15.172  22.563   3.228  1.00  0.00    +0.211 HD
ENDBRANCH   8   9
BRANCH   8  11
ATOM     11  C   UNL     1      14.854  23.436   5.363  1.00  0.00    +0.335 C 
ATOM     12  O   UNL     1      15.405  23.159   6.420  1.00  0.00    -0.249 OA
BRANCH  11  13
ATOM     13  O   UNL     1      15.002  24.626   4.738  1.00  0.00    -0.479 OA
ATOM     14  H   UNL     1      15.666  25.182   5.201  1.00  0.00    +0.296 HD
ENDBRANCH  11  13
ENDBRANCH   8  11
ENDBRANCH   1   8
TORSDOF 7
ENDMDL
MODEL 9
REMARK VINA RESULT:      -4.3      7.901      9.443
REMARK SMILES O=C(O)[C@@H](O)[C@@H](O)C(=O)O
REMARK SMILES IDX 4 1 2 2 1 3 3 4 5 6 6 8 7 9 8 11 9 12 10 13
REMARK H PARENT 3 5 5 7 7 10 10 14
ROOT
ATOM      1  C   UNL     1      19.568  16.093   5.097  1.00  0.00    +0.264 C 
ENDROOT
BRANCH   1   2
ATOM      2  C   UNL     1      19.425  15.973   6.612  1.00  0.00    +0.335 C 
ATOM      3  O   UNL     1      19.092  14.960   7.203  1.00  0.00    -0.249 OA
BRANCH   2   4
ATOM      4  O   UNL     1      19.671  17.155   7.230  1.00  0.00    -0.479 OA
ATOM      5  H   UNL     1      18.974  17.811   7.001  1.00  0.00    +0.296 HD
ENDBRANCH   2   4
ENDBRANCH   1   2
BRANCH   1   6
ATOM      6  O   UNL     1      19.983  14.845   4.516  1.00  0.00    -0.379 OA
ATOM      7  H   UNL     1      19.472  14.737   3.681  1.00  0.00    +0.211 HD
ENDBRANCH   1   6
BRANCH   1   8
ATOM      8  C   UNL     1      18.289  16.640   4.457  1.00  0.00    +0.264 C 
BRANCH   8   9
ATOM      9  O   UNL     1      17.223  16.700   5.418  1.00  0.00    -0.379 OA
ATOM     10  H   UNL     1      17.371  17.505   5.956  1.00  0.00    +0.211 HD
ENDBRANCH   8   9
BRANCH   8  11
ATOM     11  C   UNL     1      18.492  18.050   3.921  1.00  0.00    +0.335 C 
ATOM     12  O   UNL     1      18.429  18.352   2.737  1.00  0.00    -0.249 OA
BRANCH  11  13
ATOM     13  O   UNL     1      18.854  18.921   4.891  1.00  0.00    -0.479 OA
ATOM     14  H   UNL     1      19.089  18.444   5.717  1.00  0.00    +0.296 HD
ENDBRANCH  11  13
ENDBRANCH   8  11
ENDBRANCH   1   8
TORSDOF 7
ENDMDL
